Distance=1.550
 running on   16 total cores
 distrk:  each k-point on    8 cores,    2 groups
 distr:  one band on    4 cores,    2 groups
 using from now: INCAR     
 vasp.5.4.4.18Apr17-6-g9f103f2a35 (build Nov 27 2019 20:08:17) complex          
  
 POSCAR found type information on POSCAR  Ti
 POSCAR found :  1 types and      54 ions
 scaLAPACK will be used

 ----------------------------------------------------------------------------- 
|                                                                             |
|           W    W    AA    RRRRR   N    N  II  N    N   GGGG   !!!           |
|           W    W   A  A   R    R  NN   N  II  NN   N  G    G  !!!           |
|           W    W  A    A  R    R  N N  N  II  N N  N  G       !!!           |
|           W WW W  AAAAAA  RRRRR   N  N N  II  N  N N  G  GGG   !            |
|           WW  WW  A    A  R   R   N   NN  II  N   NN  G    G                |
|           W    W  A    A  R    R  N    N  II  N    N   GGGG   !!!           |
|                                                                             |
|      You have enabled k-point parallelism (KPAR>1).                         |
|      This developmental code was originally  written by Paul Kent at ORNL,  |
|      and carefully double checked in Vienna.                                |
|      GW as well as linear response parallelism added by Martijn Marsman     |
|      and Georg Kresse.                                                      |
|      Carefully verify results versus KPAR=1.                                |
|      Report problems to Paul Kent and Vienna.                               |
|                                                                             |
 ----------------------------------------------------------------------------- 

 LDA part: xc-table for Pade appr. of Perdew
 POSCAR found type information on POSCAR  Ti
 POSCAR found :  1 types and      54 ions
 POSCAR, INCAR and KPOINTS ok, starting setup
 FFT: planning ...
 WAVECAR not read
 entering main loop
       N       E                     dE             d eps       ncg     rms          rms(c)
DAV:   1     0.991427471694E+03    0.99143E+03   -0.62167E+04  1904   0.116E+03
DAV:   2    -0.280331115783E+03   -0.12718E+04   -0.12327E+04  1904   0.256E+02
DAV:   3    -0.468629677240E+03   -0.18830E+03   -0.17901E+03  3008   0.882E+01
DAV:   4    -0.485182709174E+03   -0.16553E+02   -0.15665E+02  3040   0.273E+01
DAV:   5    -0.486219799878E+03   -0.10371E+01   -0.98410E+00  3064   0.548E+00    0.858E+01
DAV:   6    -0.925546013377E+03   -0.43933E+03   -0.53604E+03  3768   0.108E+02    0.128E+02
DAV:   7    -0.434773147160E+03    0.49077E+03   -0.69583E+03  3416   0.157E+02    0.478E+01
DAV:   8    -0.407982470326E+03    0.26791E+02   -0.10336E+03  3096   0.906E+01    0.322E+01
DAV:   9    -0.415457200518E+03   -0.74747E+01   -0.18958E+02  3176   0.269E+01    0.291E+01
DAV:  10    -0.417738683445E+03   -0.22815E+01   -0.17805E+01  3144   0.753E+00    0.311E+01
DAV:  11    -0.417560361669E+03    0.17832E+00   -0.16224E+00  3112   0.164E+00    0.308E+01
DAV:  12    -0.415597143521E+03    0.19632E+01   -0.30439E+00  3064   0.469E+00    0.290E+01
DAV:  13    -0.407705628815E+03    0.78915E+01   -0.66367E+00  2336   0.841E+00    0.234E+01
DAV:  14    -0.404111597677E+03    0.35940E+01   -0.18935E+01  2952   0.119E+01    0.179E+01
DAV:  15    -0.404348028531E+03   -0.23643E+00   -0.70029E-01  2960   0.199E+00    0.186E+01
DAV:  16    -0.403627833505E+03    0.72020E+00   -0.15747E-01  3096   0.107E+00    0.171E+01
DAV:  17    -0.401671685061E+03    0.19561E+01   -0.18469E+00  2920   0.346E+00    0.101E+01
DAV:  18    -0.400993443115E+03    0.67824E+00   -0.84476E-01  2808   0.240E+00    0.729E+00
DAV:  19    -0.400830245055E+03    0.16320E+00   -0.25946E-01  3128   0.121E+00    0.628E+00
DAV:  20    -0.400325550812E+03    0.50469E+00   -0.14492E+00  2960   0.213E+00    0.200E+00
DAV:  21    -0.400287200915E+03    0.38350E-01   -0.25879E-01  2840   0.123E+00    0.132E+00
DAV:  22    -0.400260854902E+03    0.26346E-01   -0.52818E-02  3120   0.474E-01    0.952E-01
DAV:  23    -0.400245996597E+03    0.14858E-01   -0.85738E-02  3144   0.563E-01    0.887E-01
DAV:  24    -0.400243566781E+03    0.24298E-02   -0.81217E-03  2648   0.223E-01    0.843E-01
DAV:  25    -0.400238594350E+03    0.49724E-02   -0.14892E-02  3128   0.276E-01    0.494E-01
DAV:  26    -0.400238991839E+03   -0.39749E-03   -0.22010E-03  2952   0.140E-01    0.359E-01
DAV:  27    -0.400238795020E+03    0.19682E-03   -0.31632E-03  2896   0.136E-01    0.198E-01
DAV:  28    -0.400238670856E+03    0.12416E-03   -0.13768E-03  2936   0.858E-02    0.932E-02
DAV:  29    -0.400238639876E+03    0.30979E-04   -0.18779E-03  3056   0.674E-02    0.931E-02
DAV:  30    -0.400238610275E+03    0.29601E-04   -0.34745E-04  2640   0.474E-02    0.397E-02
DAV:  31    -0.400238625197E+03   -0.14922E-04   -0.74658E-05  2880   0.191E-02    0.423E-02
DAV:  32    -0.400238619185E+03    0.60119E-05   -0.81591E-06  1416   0.797E-03    0.285E-02
DAV:  33    -0.400238614976E+03    0.42092E-05   -0.43969E-06  1392   0.482E-03
   1 F= -.40023861E+03 E0= -.40018407E+03  d E =-.109082E+00
 running on   16 total cores
 distrk:  each k-point on    8 cores,    2 groups
 distr:  one band on    4 cores,    2 groups
 using from now: INCAR     
 vasp.5.4.4.18Apr17-6-g9f103f2a35 (build Nov 27 2019 20:08:17) complex          
  
 POSCAR found type information on POSCAR  Ti
 POSCAR found :  1 types and      36 ions
 scaLAPACK will be used

 ----------------------------------------------------------------------------- 
|                                                                             |
|           W    W    AA    RRRRR   N    N  II  N    N   GGGG   !!!           |
|           W    W   A  A   R    R  NN   N  II  NN   N  G    G  !!!           |
|           W    W  A    A  R    R  N N  N  II  N N  N  G       !!!           |
|           W WW W  AAAAAA  RRRRR   N  N N  II  N  N N  G  GGG   !            |
|           WW  WW  A    A  R   R   N   NN  II  N   NN  G    G                |
|           W    W  A    A  R    R  N    N  II  N    N   GGGG   !!!           |
|                                                                             |
|      You have enabled k-point parallelism (KPAR>1).                         |
|      This developmental code was originally  written by Paul Kent at ORNL,  |
|      and carefully double checked in Vienna.                                |
|      GW as well as linear response parallelism added by Martijn Marsman     |
|      and Georg Kresse.                                                      |
|      Carefully verify results versus KPAR=1.                                |
|      Report problems to Paul Kent and Vienna.                               |
|                                                                             |
 ----------------------------------------------------------------------------- 

 LDA part: xc-table for Pade appr. of Perdew
 POSCAR found type information on POSCAR  Ti
 POSCAR found :  1 types and      36 ions
 POSCAR, INCAR and KPOINTS ok, starting setup
 FFT: planning ...
 WAVECAR not read
 WARNING: random wavefunctions but no delay for mixing, default for NELMDL
 entering main loop
       N       E                     dE             d eps       ncg     rms          rms(c)
DAV:   1     0.723195517641E+03    0.72320E+03   -0.40575E+04  1288   0.107E+03
DAV:   2    -0.186069196739E+03   -0.90926E+03   -0.87266E+03  1288   0.242E+02
DAV:   3    -0.320247319663E+03   -0.13418E+03   -0.12561E+03  1960   0.863E+01
DAV:   4    -0.330604537473E+03   -0.10357E+02   -0.96417E+01  1920   0.283E+01
DAV:   5    -0.331137270528E+03   -0.53273E+00   -0.51950E+00  2040   0.585E+00    0.782E+01
DAV:   6    -0.499172936096E+03   -0.16804E+03   -0.28720E+03  2428   0.987E+01    0.996E+01
DAV:   7    -0.285848059518E+03    0.21332E+03   -0.38974E+03  2236   0.176E+02    0.339E+01
DAV:   8    -0.284788277001E+03    0.10598E+01   -0.56989E+02  1884   0.776E+01    0.383E+01
DAV:   9    -0.268543933339E+03    0.16244E+02   -0.87104E+01  2036   0.305E+01    0.289E+01
DAV:  10    -0.266692015968E+03    0.18519E+01   -0.65332E+00  2096   0.668E+00    0.271E+01
DAV:  11    -0.265197827127E+03    0.14942E+01   -0.11292E+00  2164   0.286E+00    0.250E+01
DAV:  12    -0.262342241335E+03    0.28556E+01   -0.76050E+00  1936   0.836E+00    0.208E+01
DAV:  13    -0.256354696361E+03    0.59875E+01   -0.27621E+01  2104   0.146E+01    0.701E+00
DAV:  14    -0.256048629244E+03    0.30607E+00   -0.28537E+00  2088   0.432E+00    0.468E+00
DAV:  15    -0.256114796797E+03   -0.66168E-01   -0.49378E-01  2032   0.203E+00    0.473E+00
DAV:  16    -0.255927937880E+03    0.18686E+00   -0.21656E+00  2072   0.358E+00    0.319E+00
DAV:  17    -0.255792628055E+03    0.13531E+00   -0.61385E-01  2072   0.241E+00    0.125E+00
DAV:  18    -0.255784097988E+03    0.85301E-02   -0.14929E-01  1936   0.115E+00    0.642E-01
DAV:  19    -0.255813805562E+03   -0.29708E-01   -0.19641E-01  1976   0.130E+00    0.134E+00
DAV:  20    -0.255800165165E+03    0.13640E-01   -0.17166E-01  1968   0.109E+00    0.639E-01
DAV:  21    -0.255793729889E+03    0.64353E-02   -0.24933E-02  1952   0.576E-01    0.140E-01
DAV:  22    -0.255795422852E+03   -0.16930E-02   -0.62264E-03  2112   0.179E-01    0.230E-01
DAV:  23    -0.255795255692E+03    0.16716E-03   -0.39549E-03  1968   0.189E-01    0.769E-02
DAV:  24    -0.255795440389E+03   -0.18470E-03   -0.66388E-04  1976   0.755E-02    0.777E-02
DAV:  25    -0.255795747746E+03   -0.30736E-03   -0.84619E-04  2104   0.751E-02    0.579E-02
DAV:  26    -0.255796078585E+03   -0.33084E-03   -0.29196E-04  1984   0.494E-02    0.291E-02
DAV:  27    -0.255796284516E+03   -0.20593E-03   -0.62540E-05  1864   0.175E-02    0.974E-03
DAV:  28    -0.255796469843E+03   -0.18533E-03   -0.30563E-05  1488   0.158E-02    0.113E-02
DAV:  29    -0.255796518322E+03   -0.48479E-04   -0.16118E-05  1224   0.137E-02    0.761E-03
DAV:  30    -0.255796526264E+03   -0.79422E-05   -0.31882E-06   896   0.492E-03    0.752E-03
DAV:  31    -0.255796531885E+03   -0.56217E-05   -0.19623E-06   888   0.421E-03    0.827E-03
DAV:  32    -0.255796533873E+03   -0.19875E-05   -0.96929E-07   872   0.462E-03
   1 F= -.25579653E+03 E0= -.25572776E+03  d E =-.137545E+00
 running on   16 total cores
 distrk:  each k-point on    8 cores,    2 groups
 distr:  one band on    4 cores,    2 groups
 using from now: INCAR     
 vasp.5.4.4.18Apr17-6-g9f103f2a35 (build Nov 27 2019 20:08:17) complex          
  
 POSCAR found type information on POSCAR  Ti
 POSCAR found :  1 types and      90 ions
 scaLAPACK will be used

 ----------------------------------------------------------------------------- 
|                                                                             |
|           W    W    AA    RRRRR   N    N  II  N    N   GGGG   !!!           |
|           W    W   A  A   R    R  NN   N  II  NN   N  G    G  !!!           |
|           W    W  A    A  R    R  N N  N  II  N N  N  G       !!!           |
|           W WW W  AAAAAA  RRRRR   N  N N  II  N  N N  G  GGG   !            |
|           WW  WW  A    A  R   R   N   NN  II  N   NN  G    G                |
|           W    W  A    A  R    R  N    N  II  N    N   GGGG   !!!           |
|                                                                             |
|      You have enabled k-point parallelism (KPAR>1).                         |
|      This developmental code was originally  written by Paul Kent at ORNL,  |
|      and carefully double checked in Vienna.                                |
|      GW as well as linear response parallelism added by Martijn Marsman     |
|      and Georg Kresse.                                                      |
|      Carefully verify results versus KPAR=1.                                |
|      Report problems to Paul Kent and Vienna.                               |
|                                                                             |
 ----------------------------------------------------------------------------- 

 LDA part: xc-table for Pade appr. of Perdew
 POSCAR found type information on POSCAR  Ti
 POSCAR found :  1 types and      90 ions
 POSCAR, INCAR and KPOINTS ok, starting setup
 FFT: planning ...
 WAVECAR not read
 WARNING: random wavefunctions but no delay for mixing, default for NELMDL
 entering main loop
       N       E                     dE             d eps       ncg     rms          rms(c)
DAV:   1     0.157417572676E+04    0.15742E+04   -0.10352E+05  3164   0.125E+03
DAV:   2    -0.464792707567E+03   -0.20390E+04   -0.19818E+04  3164   0.279E+02
DAV:   3    -0.766662984086E+03   -0.30187E+03   -0.28189E+03  4632   0.980E+01
DAV:   4    -0.791107990911E+03   -0.24445E+02   -0.23049E+02  4632   0.293E+01
DAV:   5    -0.792071209663E+03   -0.96322E+00   -0.93698E+00  4536   0.465E+00    0.119E+02
DAV:   6    -0.214542222928E+04   -0.13534E+04   -0.13363E+04  6282   0.189E+02    0.166E+02
DAV:   7    -0.100402090704E+04    0.11414E+04   -0.18797E+04  5828   0.184E+02    0.987E+01
DAV:   8    -0.699244410669E+03    0.30478E+03   -0.36595E+03  4906   0.152E+02    0.646E+01
DAV:   9    -0.717396437821E+03   -0.18152E+02   -0.13150E+03  5416   0.753E+01    0.542E+01
DAV:  10    -0.706533398509E+03    0.10863E+02   -0.26289E+02  5112   0.312E+01    0.434E+01
DAV:  11    -0.703821817038E+03    0.27116E+01   -0.22134E+01  4952   0.943E+00    0.419E+01
DAV:  12    -0.706347351358E+03   -0.25255E+01   -0.24828E+00  5112   0.288E+00    0.445E+01
DAV:  13    -0.703080890411E+03    0.32665E+01   -0.18920E+00  5016   0.271E+00    0.412E+01
DAV:  14    -0.687278660966E+03    0.15802E+02   -0.23869E+01  3976   0.126E+01    0.229E+01
DAV:  15    -0.682261135696E+03    0.50175E+01   -0.10921E+01  4768   0.781E+00    0.159E+01
DAV:  16    -0.682133825595E+03    0.12731E+00   -0.80444E-01  4432   0.204E+00    0.159E+01
DAV:  17    -0.682327115169E+03   -0.19329E+00   -0.36853E-01  4992   0.110E+00    0.166E+01
DAV:  18    -0.682435442252E+03   -0.10833E+00   -0.27461E-01  5024   0.913E-01    0.164E+01
DAV:  19    -0.681235588722E+03    0.11999E+01   -0.31140E+00  4800   0.374E+00    0.128E+01
DAV:  20    -0.678272730278E+03    0.29629E+01   -0.11059E+01  4240   0.805E+00    0.117E+01
DAV:  21    -0.678007416472E+03    0.26531E+00   -0.14955E+00  4792   0.268E+00    0.106E+01
DAV:  22    -0.677880856414E+03    0.12656E+00   -0.34837E-01  4616   0.135E+00    0.869E+00
DAV:  23    -0.677866121112E+03    0.14735E-01   -0.29473E-01  4736   0.125E+00    0.663E+00
DAV:  24    -0.677822232303E+03    0.43889E-01   -0.25463E-01  4776   0.102E+00    0.422E+00
DAV:  25    -0.677751450032E+03    0.70782E-01   -0.28600E-01  4816   0.116E+00    0.256E+00
DAV:  26    -0.677728712450E+03    0.22738E-01   -0.14419E-01  4768   0.777E-01    0.127E+00
DAV:  27    -0.677729046082E+03   -0.33363E-03   -0.27920E-02  4312   0.459E-01    0.850E-01
DAV:  28    -0.677729191720E+03   -0.14564E-03   -0.92080E-03  4600   0.180E-01    0.938E-01
DAV:  29    -0.677729864303E+03   -0.67258E-03   -0.30692E-02  4832   0.386E-01    0.797E-01
DAV:  30    -0.677726526476E+03    0.33378E-02   -0.14513E-02  4792   0.245E-01    0.466E-01
DAV:  31    -0.677724909268E+03    0.16172E-02   -0.30400E-03  4656   0.117E-01    0.256E-01
DAV:  32    -0.677725151463E+03   -0.24220E-03   -0.99081E-04  4496   0.767E-02    0.259E-01
DAV:  33    -0.677724837365E+03    0.31410E-03   -0.38860E-04  4024   0.488E-02    0.181E-01
DAV:  34    -0.677724736566E+03    0.10080E-03   -0.26478E-04  4960   0.321E-02    0.120E-01
DAV:  35    -0.677724612272E+03    0.12429E-03   -0.34040E-04  5176   0.350E-02    0.761E-02
DAV:  36    -0.677724571245E+03    0.41027E-04   -0.11056E-04  3824   0.284E-02    0.503E-02
DAV:  37    -0.677724549964E+03    0.21281E-04   -0.53025E-05  4144   0.175E-02    0.339E-02
DAV:  38    -0.677724551970E+03   -0.20063E-05   -0.14883E-05  2360   0.889E-03
   1 F= -.67772455E+03 E0= -.67763114E+03  d E =-.186818E+00
Distance=1.600
 running on   16 total cores
 distrk:  each k-point on    8 cores,    2 groups
 distr:  one band on    4 cores,    2 groups
 using from now: INCAR     
 vasp.5.4.4.18Apr17-6-g9f103f2a35 (build Nov 27 2019 20:08:17) complex          
  
 POSCAR found type information on POSCAR  Ti
 POSCAR found :  1 types and      54 ions
 scaLAPACK will be used

 ----------------------------------------------------------------------------- 
|                                                                             |
|           W    W    AA    RRRRR   N    N  II  N    N   GGGG   !!!           |
|           W    W   A  A   R    R  NN   N  II  NN   N  G    G  !!!           |
|           W    W  A    A  R    R  N N  N  II  N N  N  G       !!!           |
|           W WW W  AAAAAA  RRRRR   N  N N  II  N  N N  G  GGG   !            |
|           WW  WW  A    A  R   R   N   NN  II  N   NN  G    G                |
|           W    W  A    A  R    R  N    N  II  N    N   GGGG   !!!           |
|                                                                             |
|      You have enabled k-point parallelism (KPAR>1).                         |
|      This developmental code was originally  written by Paul Kent at ORNL,  |
|      and carefully double checked in Vienna.                                |
|      GW as well as linear response parallelism added by Martijn Marsman     |
|      and Georg Kresse.                                                      |
|      Carefully verify results versus KPAR=1.                                |
|      Report problems to Paul Kent and Vienna.                               |
|                                                                             |
 ----------------------------------------------------------------------------- 

 LDA part: xc-table for Pade appr. of Perdew
 POSCAR found type information on POSCAR  Ti
 POSCAR found :  1 types and      54 ions
 POSCAR, INCAR and KPOINTS ok, starting setup
 FFT: planning ...
 WAVECAR not read
 entering main loop
       N       E                     dE             d eps       ncg     rms          rms(c)
DAV:   1     0.987747748052E+03    0.98775E+03   -0.61937E+04  1904   0.116E+03
DAV:   2    -0.280592682204E+03   -0.12683E+04   -0.12299E+04  1904   0.257E+02
DAV:   3    -0.468277735361E+03   -0.18769E+03   -0.17836E+03  2984   0.881E+01
DAV:   4    -0.485181350451E+03   -0.16904E+02   -0.16033E+02  3064   0.273E+01
DAV:   5    -0.486211547738E+03   -0.10302E+01   -0.98021E+00  3024   0.550E+00    0.858E+01
DAV:   6    -0.925444508654E+03   -0.43923E+03   -0.53567E+03  3776   0.108E+02    0.128E+02
DAV:   7    -0.435528859831E+03    0.48992E+03   -0.69870E+03  3424   0.157E+02    0.479E+01
DAV:   8    -0.407924691625E+03    0.27604E+02   -0.10420E+03  3120   0.904E+01    0.322E+01
DAV:   9    -0.415469281628E+03   -0.75446E+01   -0.18865E+02  3168   0.267E+01    0.290E+01
DAV:  10    -0.417652997882E+03   -0.21837E+01   -0.17574E+01  3120   0.755E+00    0.309E+01
DAV:  11    -0.417504089047E+03    0.14891E+00   -0.15416E+00  3104   0.159E+00    0.307E+01
DAV:  12    -0.415783799868E+03    0.17203E+01   -0.30303E+00  3080   0.459E+00    0.291E+01
DAV:  13    -0.408422343862E+03    0.73615E+01   -0.54665E+00  2320   0.769E+00    0.243E+01
DAV:  14    -0.404501012786E+03    0.39213E+01   -0.20503E+01  2912   0.124E+01    0.189E+01
DAV:  15    -0.404657344011E+03   -0.15633E+00   -0.74119E-01  2904   0.206E+00    0.195E+01
DAV:  16    -0.404357248848E+03    0.30010E+00   -0.63312E-02  3168   0.676E-01    0.189E+01
DAV:  17    -0.402352233871E+03    0.20050E+01   -0.13841E+00  2960   0.314E+00    0.125E+01
DAV:  18    -0.401403137512E+03    0.94910E+00   -0.15370E+00  2632   0.349E+00    0.916E+00
DAV:  19    -0.401240688761E+03    0.16245E+00   -0.17628E-01  3000   0.994E-01    0.847E+00
DAV:  20    -0.400743745825E+03    0.49694E+00   -0.44092E-01  2992   0.100E+00    0.565E+00
DAV:  21    -0.400368589655E+03    0.37516E+00   -0.72244E-01  3080   0.158E+00    0.254E+00
DAV:  22    -0.400329340831E+03    0.39249E-01   -0.99461E-02  3040   0.725E-01    0.215E+00
DAV:  23    -0.400260189086E+03    0.69152E-01   -0.18664E-01  3120   0.814E-01    0.111E+00
DAV:  24    -0.400245602875E+03    0.14586E-01   -0.12248E-01  3032   0.511E-01    0.131E+00
DAV:  25    -0.400243531586E+03    0.20713E-02   -0.13920E-02  2632   0.318E-01    0.122E+00
DAV:  26    -0.400244873213E+03   -0.13416E-02   -0.16088E-02  3152   0.291E-01    0.107E+00
DAV:  27    -0.400244450140E+03    0.42307E-03   -0.97302E-03  3256   0.247E-01    0.974E-01
DAV:  28    -0.400240328345E+03    0.41218E-02   -0.63187E-03  2992   0.154E-01    0.547E-01
DAV:  29    -0.400239399174E+03    0.92917E-03   -0.22088E-03  3080   0.938E-02    0.330E-01
DAV:  30    -0.400238690606E+03    0.70857E-03   -0.21565E-03  3064   0.720E-02    0.174E-01
DAV:  31    -0.400238397160E+03    0.29345E-03   -0.12004E-03  3072   0.612E-02    0.151E-01
DAV:  32    -0.400238406010E+03   -0.88494E-05   -0.15816E-04  3168   0.282E-02    0.143E-01
DAV:  33    -0.400238339416E+03    0.66594E-04   -0.93943E-05  2544   0.252E-02    0.742E-02
DAV:  34    -0.400238317427E+03    0.21989E-04   -0.75096E-05  2952   0.187E-02    0.359E-02
DAV:  35    -0.400238310553E+03    0.68742E-05   -0.23455E-05  1992   0.162E-02    0.225E-02
DAV:  36    -0.400238306031E+03    0.45221E-05   -0.80780E-06  1456   0.884E-03
   1 F= -.40023831E+03 E0= -.40018377E+03  d E =-.109068E+00
 running on   16 total cores
 distrk:  each k-point on    8 cores,    2 groups
 distr:  one band on    4 cores,    2 groups
 using from now: INCAR     
 vasp.5.4.4.18Apr17-6-g9f103f2a35 (build Nov 27 2019 20:08:17) complex          
  
 POSCAR found type information on POSCAR  Ti
 POSCAR found :  1 types and      36 ions
 scaLAPACK will be used

 ----------------------------------------------------------------------------- 
|                                                                             |
|           W    W    AA    RRRRR   N    N  II  N    N   GGGG   !!!           |
|           W    W   A  A   R    R  NN   N  II  NN   N  G    G  !!!           |
|           W    W  A    A  R    R  N N  N  II  N N  N  G       !!!           |
|           W WW W  AAAAAA  RRRRR   N  N N  II  N  N N  G  GGG   !            |
|           WW  WW  A    A  R   R   N   NN  II  N   NN  G    G                |
|           W    W  A    A  R    R  N    N  II  N    N   GGGG   !!!           |
|                                                                             |
|      You have enabled k-point parallelism (KPAR>1).                         |
|      This developmental code was originally  written by Paul Kent at ORNL,  |
|      and carefully double checked in Vienna.                                |
|      GW as well as linear response parallelism added by Martijn Marsman     |
|      and Georg Kresse.                                                      |
|      Carefully verify results versus KPAR=1.                                |
|      Report problems to Paul Kent and Vienna.                               |
|                                                                             |
 ----------------------------------------------------------------------------- 

 LDA part: xc-table for Pade appr. of Perdew
 POSCAR found type information on POSCAR  Ti
 POSCAR found :  1 types and      36 ions
 POSCAR, INCAR and KPOINTS ok, starting setup
 FFT: planning ...
 WAVECAR not read
 WARNING: random wavefunctions but no delay for mixing, default for NELMDL
 entering main loop
       N       E                     dE             d eps       ncg     rms          rms(c)
DAV:   1     0.728244320728E+03    0.72824E+03   -0.40572E+04  1288   0.107E+03
DAV:   2    -0.186848145951E+03   -0.91509E+03   -0.87859E+03  1288   0.243E+02
DAV:   3    -0.320444956451E+03   -0.13360E+03   -0.12515E+03  1952   0.861E+01
DAV:   4    -0.330610980107E+03   -0.10166E+02   -0.94872E+01  1912   0.284E+01
DAV:   5    -0.331140740102E+03   -0.52976E+00   -0.51753E+00  2048   0.583E+00    0.782E+01
DAV:   6    -0.500707741011E+03   -0.16957E+03   -0.28935E+03  2444   0.988E+01    0.997E+01
DAV:   7    -0.286762772166E+03    0.21394E+03   -0.39210E+03  2236   0.176E+02    0.341E+01
DAV:   8    -0.284951817378E+03    0.18110E+01   -0.56822E+02  1900   0.779E+01    0.383E+01
DAV:   9    -0.268593029163E+03    0.16359E+02   -0.86249E+01  2008   0.303E+01    0.289E+01
DAV:  10    -0.266628367552E+03    0.19647E+01   -0.64887E+00  2080   0.675E+00    0.270E+01
DAV:  11    -0.265006025451E+03    0.16223E+01   -0.12064E+00  2160   0.303E+00    0.247E+01
DAV:  12    -0.261861750823E+03    0.31443E+01   -0.87362E+00  1944   0.896E+00    0.201E+01
DAV:  13    -0.256339924899E+03    0.55218E+01   -0.26227E+01  2120   0.142E+01    0.693E+00
DAV:  14    -0.256062943638E+03    0.27698E+00   -0.26141E+00  2080   0.408E+00    0.467E+00
DAV:  15    -0.256203166630E+03   -0.14022E+00   -0.82018E-01  2024   0.255E+00    0.522E+00
DAV:  16    -0.255928001408E+03    0.27517E+00   -0.25714E+00  2096   0.386E+00    0.315E+00
DAV:  17    -0.255790096565E+03    0.13790E+00   -0.63134E-01  2072   0.252E+00    0.115E+00
DAV:  18    -0.255791377897E+03   -0.12813E-02   -0.21934E-01  2016   0.144E+00    0.947E-01
DAV:  19    -0.255823261602E+03   -0.31884E-01   -0.38032E-01  1936   0.178E+00    0.164E+00
DAV:  20    -0.255803398007E+03    0.19864E-01   -0.18662E-01  1984   0.114E+00    0.753E-01
DAV:  21    -0.255794033188E+03    0.93648E-02   -0.34679E-02  1872   0.716E-01    0.216E-01
DAV:  22    -0.255794684645E+03   -0.65146E-03   -0.52149E-03  2192   0.173E-01    0.132E-01
DAV:  23    -0.255795171365E+03   -0.48672E-03   -0.17108E-03  1864   0.136E-01    0.965E-02
DAV:  24    -0.255795316044E+03   -0.14468E-03   -0.16436E-03  2008   0.114E-01    0.766E-02
DAV:  25    -0.255795663819E+03   -0.34777E-03   -0.54418E-04  2088   0.630E-02    0.437E-02
DAV:  26    -0.255795932040E+03   -0.26822E-03   -0.27018E-04  1976   0.449E-02    0.389E-02
DAV:  27    -0.255796205193E+03   -0.27315E-03   -0.10584E-04  1960   0.237E-02    0.126E-02
DAV:  28    -0.255796373794E+03   -0.16860E-03   -0.33559E-05  1592   0.174E-02    0.665E-03
DAV:  29    -0.255796473623E+03   -0.99828E-04   -0.73146E-06  1032   0.729E-03    0.810E-03
DAV:  30    -0.255796488281E+03   -0.14659E-04   -0.29366E-06   896   0.651E-03    0.353E-03
DAV:  31    -0.255796490049E+03   -0.17676E-05   -0.20607E-06   896   0.322E-03
   1 F= -.25579649E+03 E0= -.25572772E+03  d E =-.137548E+00
 running on   16 total cores
 distrk:  each k-point on    8 cores,    2 groups
 distr:  one band on    4 cores,    2 groups
 using from now: INCAR     
 vasp.5.4.4.18Apr17-6-g9f103f2a35 (build Nov 27 2019 20:08:17) complex          
  
 POSCAR found type information on POSCAR  Ti
 POSCAR found :  1 types and      90 ions
 scaLAPACK will be used

 ----------------------------------------------------------------------------- 
|                                                                             |
|           W    W    AA    RRRRR   N    N  II  N    N   GGGG   !!!           |
|           W    W   A  A   R    R  NN   N  II  NN   N  G    G  !!!           |
|           W    W  A    A  R    R  N N  N  II  N N  N  G       !!!           |
|           W WW W  AAAAAA  RRRRR   N  N N  II  N  N N  G  GGG   !            |
|           WW  WW  A    A  R   R   N   NN  II  N   NN  G    G                |
|           W    W  A    A  R    R  N    N  II  N    N   GGGG   !!!           |
|                                                                             |
|      You have enabled k-point parallelism (KPAR>1).                         |
|      This developmental code was originally  written by Paul Kent at ORNL,  |
|      and carefully double checked in Vienna.                                |
|      GW as well as linear response parallelism added by Martijn Marsman     |
|      and Georg Kresse.                                                      |
|      Carefully verify results versus KPAR=1.                                |
|      Report problems to Paul Kent and Vienna.                               |
|                                                                             |
 ----------------------------------------------------------------------------- 

 LDA part: xc-table for Pade appr. of Perdew
 POSCAR found type information on POSCAR  Ti
 POSCAR found :  1 types and      90 ions
 POSCAR, INCAR and KPOINTS ok, starting setup
 FFT: planning ...
 WAVECAR not read
 WARNING: random wavefunctions but no delay for mixing, default for NELMDL
 entering main loop
       N       E                     dE             d eps       ncg     rms          rms(c)
DAV:   1     0.156671271391E+04    0.15667E+04   -0.10350E+05  3164   0.125E+03
DAV:   2    -0.463220956310E+03   -0.20299E+04   -0.19736E+04  3164   0.279E+02
DAV:   3    -0.765716983747E+03   -0.30250E+03   -0.28260E+03  4632   0.975E+01
DAV:   4    -0.790222693632E+03   -0.24506E+02   -0.23055E+02  4624   0.294E+01
DAV:   5    -0.791215523986E+03   -0.99283E+00   -0.96613E+00  4536   0.466E+00    0.119E+02
DAV:   6    -0.206439234965E+04   -0.12732E+04   -0.12419E+04  6284   0.181E+02    0.160E+02
DAV:   7    -0.102242689240E+04    0.10420E+04   -0.18632E+04  5796   0.181E+02    0.981E+01
DAV:   8    -0.697197047408E+03    0.32523E+03   -0.35886E+03  4930   0.148E+02    0.638E+01
DAV:   9    -0.715599138433E+03   -0.18402E+02   -0.12520E+03  5408   0.729E+01    0.536E+01
DAV:  10    -0.706787174999E+03    0.88120E+01   -0.25642E+02  5104   0.299E+01    0.426E+01
DAV:  11    -0.705540782115E+03    0.12464E+01   -0.20641E+01  4952   0.872E+00    0.419E+01
DAV:  12    -0.707468393728E+03   -0.19276E+01   -0.19497E+00  5072   0.226E+00    0.438E+01
DAV:  13    -0.706295890105E+03    0.11725E+01   -0.92371E-01  5136   0.172E+00    0.426E+01
DAV:  14    -0.694097971607E+03    0.12198E+02   -0.17082E+01  4192   0.104E+01    0.285E+01
DAV:  15    -0.685827637112E+03    0.82703E+01   -0.11386E+01  4264   0.811E+00    0.190E+01
DAV:  16    -0.685632409741E+03    0.19523E+00   -0.92988E-01  4656   0.200E+00    0.189E+01
DAV:  17    -0.685370498076E+03    0.26191E+00   -0.12203E-01  4960   0.576E-01    0.188E+01
DAV:  18    -0.686190838437E+03   -0.82034E+00   -0.28664E-01  5008   0.108E+00    0.196E+01
DAV:  19    -0.683927373199E+03    0.22635E+01   -0.15184E+00  4352   0.282E+00    0.176E+01
DAV:  20    -0.681637239740E+03    0.22901E+01   -0.39992E+00  4296   0.444E+00    0.194E+01
DAV:  21    -0.682005044690E+03   -0.36780E+00   -0.21163E+00  4992   0.285E+00    0.265E+01
DAV:  22    -0.682013102205E+03   -0.80575E-02   -0.19291E-01  4232   0.102E+00    0.266E+01
DAV:  23    -0.682032990712E+03   -0.19889E-01   -0.10105E-02  5248   0.132E-01    0.266E+01
DAV:  24    -0.682328267842E+03   -0.29528E+00   -0.43756E-01  5168   0.132E+00    0.284E+01
DAV:  25    -0.682511164854E+03   -0.18290E+00   -0.76569E-02  4624   0.569E-01    0.291E+01
DAV:  26    -0.682340414942E+03    0.17075E+00   -0.32529E-02  4696   0.403E-01    0.294E+01
DAV:  27    -0.682222201469E+03    0.11821E+00   -0.14865E-01  4864   0.708E-01    0.268E+01
DAV:  28    -0.681678735886E+03    0.54347E+00   -0.32875E+00  4904   0.398E+00    0.162E+01
DAV:  29    -0.681117961196E+03    0.56077E+00   -0.94051E-01  4792   0.224E+00    0.135E+01
DAV:  30    -0.680275444892E+03    0.84252E+00   -0.88146E-01  5032   0.198E+00    0.118E+01
DAV:  31    -0.679635127466E+03    0.64032E+00   -0.17208E+00  4968   0.283E+00    0.112E+01
DAV:  32    -0.679588788317E+03    0.46339E-01   -0.13036E+00  4920   0.252E+00    0.971E+00
DAV:  33    -0.679548271658E+03    0.40517E-01   -0.24426E-01  4960   0.931E-01    0.103E+01
DAV:  34    -0.679531358817E+03    0.16913E-01   -0.74336E-02  4968   0.555E-01    0.104E+01
DAV:  35    -0.679725678953E+03   -0.19432E+00   -0.16126E-01  4856   0.787E-01    0.125E+01
DAV:  36    -0.679841001309E+03   -0.11532E+00   -0.11337E-01  5040   0.588E-01    0.139E+01
DAV:  37    -0.679834873991E+03    0.61273E-02   -0.98356E-03  4176   0.252E-01    0.141E+01
DAV:  38    -0.679917066992E+03   -0.82193E-01   -0.11645E-02  4832   0.193E-01    0.148E+01
DAV:  39    -0.679919411737E+03   -0.23447E-02   -0.13258E-03  4136   0.900E-02    0.148E+01
DAV:  40    -0.679882031564E+03    0.37380E-01   -0.57885E-03  5048   0.163E-01    0.144E+01
DAV:  41    -0.679875799821E+03    0.62317E-02   -0.56532E-04  4192   0.584E-02    0.143E+01
DAV:  42    -0.679869408183E+03    0.63916E-02   -0.14136E-04  4992   0.216E-02    0.142E+01
DAV:  43    -0.679763258815E+03    0.10615E+00   -0.28375E-02  4536   0.365E-01    0.125E+01
DAV:  44    -0.679772214838E+03   -0.89560E-02   -0.21294E-03  4160   0.117E-01    0.126E+01
DAV:  45    -0.679791998165E+03   -0.19783E-01   -0.20230E-03  4304   0.105E-01    0.128E+01
DAV:  46    -0.679758345079E+03    0.33653E-01   -0.86907E-03  4416   0.212E-01    0.123E+01
DAV:  47    -0.679759989052E+03   -0.16440E-02   -0.46965E-04  4416   0.488E-02    0.123E+01
DAV:  48    -0.679702825085E+03    0.57164E-01   -0.58208E-03  5032   0.122E-01    0.118E+01
DAV:  49    -0.679268006163E+03    0.43482E+00   -0.58474E-01  4968   0.122E+00    0.597E+00
DAV:  50    -0.679196800834E+03    0.71205E-01   -0.22477E-01  4624   0.888E-01    0.351E+00
DAV:  51    -0.679173752468E+03    0.23048E-01   -0.56142E-02  4744   0.476E-01    0.304E+00
DAV:  52    -0.679153976101E+03    0.19776E-01   -0.49324E-02  4456   0.473E-01    0.124E+00
DAV:  53    -0.679150527269E+03    0.34488E-02   -0.10633E-02  4888   0.230E-01    0.843E-01
DAV:  54    -0.679149508202E+03    0.10191E-02   -0.10905E-03  4752   0.731E-02    0.685E-01
DAV:  55    -0.679148412084E+03    0.10961E-02   -0.38730E-03  4352   0.135E-01    0.455E-01
DAV:  56    -0.679147618176E+03    0.79391E-03   -0.15808E-03  5168   0.801E-02    0.372E-01
DAV:  57    -0.679147517819E+03    0.10036E-03   -0.43240E-04  4368   0.495E-02    0.345E-01
DAV:  58    -0.679147435414E+03    0.82405E-04   -0.24182E-04  4992   0.349E-02    0.322E-01
DAV:  59    -0.679147260125E+03    0.17529E-03   -0.23432E-04  4952   0.232E-02    0.198E-01
DAV:  60    -0.679147234308E+03    0.25817E-04   -0.46751E-05  3752   0.153E-02    0.153E-01
DAV:  61    -0.679147203649E+03    0.30659E-04   -0.76915E-05  4560   0.143E-02    0.972E-02
DAV:  62    -0.679147189643E+03    0.14006E-04   -0.95265E-05  4720   0.144E-02    0.166E-02
DAV:  63    -0.679147188117E+03    0.15265E-05   -0.11649E-05  2240   0.832E-03
   1 F= -.67914719E+03 E0= -.67905321E+03  d E =-.187964E+00
Distance=1.650
 running on   16 total cores
 distrk:  each k-point on    8 cores,    2 groups
 distr:  one band on    4 cores,    2 groups
 using from now: INCAR     
 vasp.5.4.4.18Apr17-6-g9f103f2a35 (build Nov 27 2019 20:08:17) complex          
  
 POSCAR found type information on POSCAR  Ti
 POSCAR found :  1 types and      54 ions
 scaLAPACK will be used

 ----------------------------------------------------------------------------- 
|                                                                             |
|           W    W    AA    RRRRR   N    N  II  N    N   GGGG   !!!           |
|           W    W   A  A   R    R  NN   N  II  NN   N  G    G  !!!           |
|           W    W  A    A  R    R  N N  N  II  N N  N  G       !!!           |
|           W WW W  AAAAAA  RRRRR   N  N N  II  N  N N  G  GGG   !            |
|           WW  WW  A    A  R   R   N   NN  II  N   NN  G    G                |
|           W    W  A    A  R    R  N    N  II  N    N   GGGG   !!!           |
|                                                                             |
|      You have enabled k-point parallelism (KPAR>1).                         |
|      This developmental code was originally  written by Paul Kent at ORNL,  |
|      and carefully double checked in Vienna.                                |
|      GW as well as linear response parallelism added by Martijn Marsman     |
|      and Georg Kresse.                                                      |
|      Carefully verify results versus KPAR=1.                                |
|      Report problems to Paul Kent and Vienna.                               |
|                                                                             |
 ----------------------------------------------------------------------------- 

 LDA part: xc-table for Pade appr. of Perdew
 POSCAR found type information on POSCAR  Ti
 POSCAR found :  1 types and      54 ions
 POSCAR, INCAR and KPOINTS ok, starting setup
 FFT: planning ...
 WAVECAR not read
 entering main loop
       N       E                     dE             d eps       ncg     rms          rms(c)
DAV:   1     0.994517326992E+03    0.99452E+03   -0.62025E+04  1904   0.116E+03
DAV:   2    -0.279334191172E+03   -0.12739E+04   -0.12345E+04  1904   0.256E+02
DAV:   3    -0.468223809953E+03   -0.18889E+03   -0.17945E+03  2984   0.884E+01
DAV:   4    -0.485118034951E+03   -0.16894E+02   -0.16008E+02  3040   0.275E+01
DAV:   5    -0.486214965135E+03   -0.10969E+01   -0.10397E+01  3072   0.562E+00    0.858E+01
DAV:   6    -0.923054183086E+03   -0.43684E+03   -0.53539E+03  3784   0.108E+02    0.127E+02
DAV:   7    -0.436749328702E+03    0.48630E+03   -0.70095E+03  3440   0.158E+02    0.478E+01
DAV:   8    -0.407680234819E+03    0.29069E+02   -0.10297E+03  3128   0.907E+01    0.324E+01
DAV:   9    -0.415413886943E+03   -0.77337E+01   -0.19340E+02  3152   0.269E+01    0.290E+01
DAV:  10    -0.417516071533E+03   -0.21022E+01   -0.18258E+01  3160   0.764E+00    0.309E+01
DAV:  11    -0.417434747845E+03    0.81324E-01   -0.16568E+00  3120   0.161E+00    0.307E+01
DAV:  12    -0.416948774776E+03    0.48597E+00   -0.29229E+00  3024   0.428E+00    0.305E+01
DAV:  13    -0.413398114326E+03    0.35507E+01   -0.13712E+00  2376   0.371E+00    0.298E+01
DAV:  14    -0.410436241569E+03    0.29619E+01   -0.39482E+01  3008   0.162E+01    0.279E+01
DAV:  15    -0.410113571214E+03    0.32267E+00   -0.14054E+00  2912   0.314E+00    0.277E+01
DAV:  16    -0.410131487798E+03   -0.17917E-01   -0.90439E-02  3104   0.579E-01    0.276E+01
DAV:  17    -0.405579494776E+03    0.45520E+01   -0.40778E+00  3112   0.436E+00    0.184E+01
DAV:  18    -0.404405378918E+03    0.11741E+01   -0.78229E-01  2728   0.247E+00    0.154E+01
DAV:  19    -0.404059108638E+03    0.34627E+00   -0.10404E-01  2976   0.800E-01    0.152E+01
DAV:  20    -0.402584970152E+03    0.14741E+01   -0.61523E-01  2880   0.192E+00    0.122E+01
DAV:  21    -0.401336726808E+03    0.12482E+01   -0.10565E+00  3024   0.243E+00    0.866E+00
DAV:  22    -0.401309994430E+03    0.26732E-01   -0.83929E-02  2688   0.726E-01    0.844E+00
DAV:  23    -0.400584040740E+03    0.72595E+00   -0.10013E+00  3112   0.223E+00    0.542E+00
DAV:  24    -0.400294214094E+03    0.28983E+00   -0.59516E-01  2960   0.153E+00    0.284E+00
DAV:  25    -0.400281795847E+03    0.12418E-01   -0.64885E-02  2840   0.621E-01    0.239E+00
DAV:  26    -0.400305472159E+03   -0.23676E-01   -0.26390E-02  3104   0.411E-01    0.237E+00
DAV:  27    -0.400278683167E+03    0.26789E-01   -0.23299E-02  3040   0.293E-01    0.191E+00
DAV:  28    -0.400277441455E+03    0.12417E-02   -0.35766E-03  2928   0.121E-01    0.176E+00
DAV:  29    -0.400257584533E+03    0.19857E-01   -0.18267E-02  3104   0.272E-01    0.124E+00
DAV:  30    -0.400254498770E+03    0.30858E-02   -0.22058E-03  2824   0.111E-01    0.111E+00
DAV:  31    -0.400248090648E+03    0.64081E-02   -0.41822E-03  2960   0.872E-02    0.846E-01
DAV:  32    -0.400244995450E+03    0.30952E-02   -0.16700E-03  2896   0.664E-02    0.698E-01
DAV:  33    -0.400241500562E+03    0.34949E-02   -0.23960E-03  3008   0.895E-02    0.482E-01
DAV:  34    -0.400240120468E+03    0.13801E-02   -0.12741E-03  2832   0.774E-02    0.344E-01
DAV:  35    -0.400238979275E+03    0.11412E-02   -0.13559E-03  3104   0.637E-02    0.198E-01
DAV:  36    -0.400238655249E+03    0.32403E-03   -0.68701E-04  3096   0.499E-02    0.991E-02
DAV:  37    -0.400238587386E+03    0.67863E-04   -0.15326E-04  3152   0.203E-02    0.552E-02
DAV:  38    -0.400238577448E+03    0.99382E-05   -0.24045E-05  1984   0.106E-02    0.341E-02
DAV:  39    -0.400238570718E+03    0.67302E-05   -0.19263E-05  1944   0.767E-03    0.201E-02
DAV:  40    -0.400238568795E+03    0.19234E-05   -0.66684E-06  1408   0.661E-03
   1 F= -.40023857E+03 E0= -.40018408E+03  d E =-.108981E+00
 running on   16 total cores
 distrk:  each k-point on    8 cores,    2 groups
 distr:  one band on    4 cores,    2 groups
 using from now: INCAR     
 vasp.5.4.4.18Apr17-6-g9f103f2a35 (build Nov 27 2019 20:08:17) complex          
  
 POSCAR found type information on POSCAR  Ti
 POSCAR found :  1 types and      36 ions
 scaLAPACK will be used

 ----------------------------------------------------------------------------- 
|                                                                             |
|           W    W    AA    RRRRR   N    N  II  N    N   GGGG   !!!           |
|           W    W   A  A   R    R  NN   N  II  NN   N  G    G  !!!           |
|           W    W  A    A  R    R  N N  N  II  N N  N  G       !!!           |
|           W WW W  AAAAAA  RRRRR   N  N N  II  N  N N  G  GGG   !            |
|           WW  WW  A    A  R   R   N   NN  II  N   NN  G    G                |
|           W    W  A    A  R    R  N    N  II  N    N   GGGG   !!!           |
|                                                                             |
|      You have enabled k-point parallelism (KPAR>1).                         |
|      This developmental code was originally  written by Paul Kent at ORNL,  |
|      and carefully double checked in Vienna.                                |
|      GW as well as linear response parallelism added by Martijn Marsman     |
|      and Georg Kresse.                                                      |
|      Carefully verify results versus KPAR=1.                                |
|      Report problems to Paul Kent and Vienna.                               |
|                                                                             |
 ----------------------------------------------------------------------------- 

 LDA part: xc-table for Pade appr. of Perdew
 POSCAR found type information on POSCAR  Ti
 POSCAR found :  1 types and      36 ions
 POSCAR, INCAR and KPOINTS ok, starting setup
 FFT: planning ...
 WAVECAR not read
 WARNING: random wavefunctions but no delay for mixing, default for NELMDL
 entering main loop
       N       E                     dE             d eps       ncg     rms          rms(c)
DAV:   1     0.731845771159E+03    0.73185E+03   -0.40618E+04  1288   0.107E+03
DAV:   2    -0.184515411736E+03   -0.91636E+03   -0.87952E+03  1288   0.243E+02
DAV:   3    -0.320465767522E+03   -0.13595E+03   -0.12778E+03  1992   0.863E+01
DAV:   4    -0.330589908436E+03   -0.10124E+02   -0.94335E+01  1904   0.282E+01
DAV:   5    -0.331132445377E+03   -0.54254E+00   -0.52998E+00  2024   0.590E+00    0.781E+01
DAV:   6    -0.500687611574E+03   -0.16956E+03   -0.28901E+03  2436   0.989E+01    0.998E+01
DAV:   7    -0.286460679696E+03    0.21423E+03   -0.39285E+03  2244   0.176E+02    0.341E+01
DAV:   8    -0.285150087078E+03    0.13106E+01   -0.57548E+02  1876   0.784E+01    0.385E+01
DAV:   9    -0.268648871094E+03    0.16501E+02   -0.87056E+01  2048   0.305E+01    0.290E+01
DAV:  10    -0.266925638289E+03    0.17232E+01   -0.62013E+00  2072   0.665E+00    0.274E+01
DAV:  11    -0.265619109675E+03    0.13065E+01   -0.94554E-01  2176   0.254E+00    0.255E+01
DAV:  12    -0.262326354084E+03    0.32928E+01   -0.85639E+00  1924   0.889E+00    0.207E+01
DAV:  13    -0.256371653631E+03    0.59547E+01   -0.27956E+01  2112   0.146E+01    0.721E+00
DAV:  14    -0.256073055036E+03    0.29860E+00   -0.27369E+00  2064   0.438E+00    0.489E+00
DAV:  15    -0.256167397278E+03   -0.94342E-01   -0.64880E-01  2048   0.222E+00    0.510E+00
DAV:  16    -0.255941775133E+03    0.22562E+00   -0.25191E+00  2080   0.394E+00    0.333E+00
DAV:  17    -0.255794222917E+03    0.14755E+00   -0.60372E-01  2048   0.242E+00    0.133E+00
DAV:  18    -0.255785811670E+03    0.84112E-02   -0.23851E-01  2000   0.148E+00    0.816E-01
DAV:  19    -0.255822020447E+03   -0.36209E-01   -0.33898E-01  1948   0.165E+00    0.164E+00
DAV:  20    -0.255802439018E+03    0.19581E-01   -0.17256E-01  1992   0.112E+00    0.738E-01
DAV:  21    -0.255793296021E+03    0.91430E-02   -0.40171E-02  1876   0.751E-01    0.190E-01
DAV:  22    -0.255794332166E+03   -0.10361E-02   -0.60154E-03  2104   0.182E-01    0.174E-01
DAV:  23    -0.255795110623E+03   -0.77846E-03   -0.16152E-03  1848   0.132E-01    0.117E-01
DAV:  24    -0.255795265507E+03   -0.15488E-03   -0.27991E-03  2008   0.148E-01    0.112E-01
DAV:  25    -0.255795294897E+03   -0.29390E-04   -0.11511E-03  2024   0.988E-02    0.399E-02
DAV:  26    -0.255795475345E+03   -0.18045E-03   -0.10863E-04  1848   0.306E-02    0.350E-02
DAV:  27    -0.255795717645E+03   -0.24230E-03   -0.16816E-04  2048   0.287E-02    0.213E-02
DAV:  28    -0.255795774398E+03   -0.56753E-04   -0.28097E-05  1496   0.176E-02    0.446E-03
DAV:  29    -0.255795952705E+03   -0.17831E-03   -0.31153E-05  1432   0.156E-02    0.133E-02
DAV:  30    -0.255795964044E+03   -0.11338E-04   -0.54084E-06   896   0.872E-03    0.732E-03
DAV:  31    -0.255795969095E+03   -0.50519E-05   -0.44040E-06   896   0.462E-03    0.338E-03
DAV:  32    -0.255795975784E+03   -0.66886E-05   -0.14360E-06   888   0.442E-03    0.416E-03
DAV:  33    -0.255795983059E+03   -0.72746E-05   -0.26670E-06   872   0.530E-03    0.191E-03
DAV:  34    -0.255795984115E+03   -0.10560E-05   -0.11216E-06   856   0.307E-03
   1 F= -.25579598E+03 E0= -.25572721E+03  d E =-.137554E+00
 running on   16 total cores
 distrk:  each k-point on    8 cores,    2 groups
 distr:  one band on    4 cores,    2 groups
 using from now: INCAR     
 vasp.5.4.4.18Apr17-6-g9f103f2a35 (build Nov 27 2019 20:08:17) complex          
  
 POSCAR found type information on POSCAR  Ti
 POSCAR found :  1 types and      90 ions
 scaLAPACK will be used

 ----------------------------------------------------------------------------- 
|                                                                             |
|           W    W    AA    RRRRR   N    N  II  N    N   GGGG   !!!           |
|           W    W   A  A   R    R  NN   N  II  NN   N  G    G  !!!           |
|           W    W  A    A  R    R  N N  N  II  N N  N  G       !!!           |
|           W WW W  AAAAAA  RRRRR   N  N N  II  N  N N  G  GGG   !            |
|           WW  WW  A    A  R   R   N   NN  II  N   NN  G    G                |
|           W    W  A    A  R    R  N    N  II  N    N   GGGG   !!!           |
|                                                                             |
|      You have enabled k-point parallelism (KPAR>1).                         |
|      This developmental code was originally  written by Paul Kent at ORNL,  |
|      and carefully double checked in Vienna.                                |
|      GW as well as linear response parallelism added by Martijn Marsman     |
|      and Georg Kresse.                                                      |
|      Carefully verify results versus KPAR=1.                                |
|      Report problems to Paul Kent and Vienna.                               |
|                                                                             |
 ----------------------------------------------------------------------------- 

 LDA part: xc-table for Pade appr. of Perdew
 POSCAR found type information on POSCAR  Ti
 POSCAR found :  1 types and      90 ions
 POSCAR, INCAR and KPOINTS ok, starting setup
 FFT: planning ...
 WAVECAR not read
 WARNING: random wavefunctions but no delay for mixing, default for NELMDL
 entering main loop
       N       E                     dE             d eps       ncg     rms          rms(c)
DAV:   1     0.155828005362E+04    0.15583E+04   -0.10342E+05  3164   0.124E+03
DAV:   2    -0.465166878959E+03   -0.20234E+04   -0.19672E+04  3164   0.278E+02
DAV:   3    -0.764983928374E+03   -0.29982E+03   -0.28001E+03  4648   0.970E+01
DAV:   4    -0.789576000540E+03   -0.24592E+02   -0.23105E+02  4656   0.289E+01
DAV:   5    -0.790541757709E+03   -0.96576E+00   -0.94335E+00  4520   0.460E+00    0.119E+02
DAV:   6    -0.197787758576E+04   -0.11873E+04   -0.11418E+04  6258   0.174E+02    0.153E+02
DAV:   7    -0.104625649310E+04    0.93162E+03   -0.18348E+04  5764   0.179E+02    0.968E+01
DAV:   8    -0.693075481776E+03    0.35318E+03   -0.34586E+03  4994   0.143E+02    0.625E+01
DAV:   9    -0.713833366186E+03   -0.20758E+02   -0.12007E+03  5368   0.700E+01    0.526E+01
DAV:  10    -0.706195058454E+03    0.76383E+01   -0.24426E+02  5080   0.289E+01    0.415E+01
DAV:  11    -0.705661016970E+03    0.53404E+00   -0.18953E+01  4976   0.812E+00    0.411E+01
DAV:  12    -0.706866847214E+03   -0.12058E+01   -0.15008E+00  4952   0.173E+00    0.423E+01
DAV:  13    -0.706176382056E+03    0.69047E+00   -0.60469E-01  5160   0.136E+00    0.415E+01
DAV:  14    -0.698700012227E+03    0.74764E+01   -0.12199E+01  4416   0.871E+00    0.318E+01
DAV:  15    -0.690762396482E+03    0.79376E+01   -0.77862E+00  4136   0.686E+00    0.236E+01
DAV:  16    -0.689506758342E+03    0.12556E+01   -0.89393E-01  4704   0.206E+00    0.225E+01
DAV:  17    -0.688534255764E+03    0.97250E+00   -0.63204E-01  4976   0.162E+00    0.211E+01
DAV:  18    -0.686791004622E+03    0.17433E+01   -0.25499E+00  4760   0.313E+00    0.184E+01
DAV:  19    -0.682683108935E+03    0.41079E+01   -0.54461E+00  4608   0.533E+00    0.112E+01
DAV:  20    -0.681092073704E+03    0.15910E+01   -0.36108E+00  4632   0.423E+00    0.684E+00
DAV:  21    -0.680541007281E+03    0.55107E+00   -0.20964E+00  4424   0.333E+00    0.500E+00
DAV:  22    -0.680410788190E+03    0.13022E+00   -0.75706E-01  4648   0.206E+00    0.470E+00
DAV:  23    -0.680350216902E+03    0.60571E-01   -0.81549E-01  4640   0.192E+00    0.438E+00
DAV:  24    -0.680301362853E+03    0.48854E-01   -0.37355E-01  4752   0.133E+00    0.336E+00
DAV:  25    -0.680282513139E+03    0.18850E-01   -0.36837E-01  4904   0.136E+00    0.221E+00
DAV:  26    -0.680287245901E+03   -0.47328E-02   -0.62563E-02  4896   0.491E-01    0.193E+00
DAV:  27    -0.680274723334E+03    0.12523E-01   -0.32837E-02  4800   0.411E-01    0.150E+00
DAV:  28    -0.680248420987E+03    0.26302E-01   -0.42738E-02  4912   0.443E-01    0.105E+00
DAV:  29    -0.680234953547E+03    0.13467E-01   -0.34886E-02  5080   0.373E-01    0.700E-01
DAV:  30    -0.680231731611E+03    0.32219E-02   -0.82521E-03  4688   0.197E-01    0.534E-01
DAV:  31    -0.680228822408E+03    0.29092E-02   -0.50439E-03  4368   0.162E-01    0.305E-01
DAV:  32    -0.680228780285E+03    0.42122E-04   -0.18652E-03  4896   0.925E-02    0.266E-01
DAV:  33    -0.680228213168E+03    0.56712E-03   -0.12719E-03  5120   0.767E-02    0.215E-01
DAV:  34    -0.680227694987E+03    0.51818E-03   -0.11896E-03  3984   0.865E-02    0.103E-01
DAV:  35    -0.680227589233E+03    0.10575E-03   -0.80863E-04  4920   0.604E-02    0.669E-02
DAV:  36    -0.680227598510E+03   -0.92772E-05   -0.13169E-04  4440   0.292E-02    0.483E-02
DAV:  37    -0.680227570803E+03    0.27707E-04   -0.10701E-04  4192   0.235E-02    0.185E-02
DAV:  38    -0.680227569093E+03    0.17094E-05   -0.11195E-05  2400   0.783E-03
   1 F= -.68022757E+03 E0= -.68013262E+03  d E =-.189908E+00
Distance=1.700
 running on   16 total cores
 distrk:  each k-point on    8 cores,    2 groups
 distr:  one band on    4 cores,    2 groups
 using from now: INCAR     
 vasp.5.4.4.18Apr17-6-g9f103f2a35 (build Nov 27 2019 20:08:17) complex          
  
 POSCAR found type information on POSCAR  Ti
 POSCAR found :  1 types and      54 ions
 scaLAPACK will be used

 ----------------------------------------------------------------------------- 
|                                                                             |
|           W    W    AA    RRRRR   N    N  II  N    N   GGGG   !!!           |
|           W    W   A  A   R    R  NN   N  II  NN   N  G    G  !!!           |
|           W    W  A    A  R    R  N N  N  II  N N  N  G       !!!           |
|           W WW W  AAAAAA  RRRRR   N  N N  II  N  N N  G  GGG   !            |
|           WW  WW  A    A  R   R   N   NN  II  N   NN  G    G                |
|           W    W  A    A  R    R  N    N  II  N    N   GGGG   !!!           |
|                                                                             |
|      You have enabled k-point parallelism (KPAR>1).                         |
|      This developmental code was originally  written by Paul Kent at ORNL,  |
|      and carefully double checked in Vienna.                                |
|      GW as well as linear response parallelism added by Martijn Marsman     |
|      and Georg Kresse.                                                      |
|      Carefully verify results versus KPAR=1.                                |
|      Report problems to Paul Kent and Vienna.                               |
|                                                                             |
 ----------------------------------------------------------------------------- 

 LDA part: xc-table for Pade appr. of Perdew
 POSCAR found type information on POSCAR  Ti
 POSCAR found :  1 types and      54 ions
 POSCAR, INCAR and KPOINTS ok, starting setup
 FFT: planning ...
 WAVECAR not read
 entering main loop
       N       E                     dE             d eps       ncg     rms          rms(c)
DAV:   1     0.994666410665E+03    0.99467E+03   -0.62082E+04  1904   0.116E+03
DAV:   2    -0.280200698972E+03   -0.12749E+04   -0.12355E+04  1904   0.256E+02
DAV:   3    -0.468592132772E+03   -0.18839E+03   -0.17902E+03  2992   0.880E+01
DAV:   4    -0.485146577656E+03   -0.16554E+02   -0.15735E+02  3048   0.274E+01
DAV:   5    -0.486214895803E+03   -0.10683E+01   -0.10123E+01  3072   0.553E+00    0.858E+01
DAV:   6    -0.925393906122E+03   -0.43918E+03   -0.53486E+03  3760   0.108E+02    0.127E+02
DAV:   7    -0.438194066954E+03    0.48720E+03   -0.70427E+03  3400   0.157E+02    0.485E+01
DAV:   8    -0.407539485681E+03    0.30655E+02   -0.10444E+03  3088   0.915E+01    0.323E+01
DAV:   9    -0.415598381278E+03   -0.80589E+01   -0.19543E+02  3144   0.272E+01    0.292E+01
DAV:  10    -0.417732134071E+03   -0.21338E+01   -0.18331E+01  3160   0.773E+00    0.311E+01
DAV:  11    -0.417557354559E+03    0.17478E+00   -0.15998E+00  3080   0.168E+00    0.308E+01
DAV:  12    -0.416493560072E+03    0.10638E+01   -0.28180E+00  3088   0.432E+00    0.300E+01
DAV:  13    -0.411325926149E+03    0.51676E+01   -0.30810E+00  2448   0.561E+00    0.278E+01
DAV:  14    -0.408341316283E+03    0.29846E+01   -0.28634E+01  2952   0.142E+01    0.246E+01
DAV:  15    -0.408182081409E+03    0.15923E+00   -0.99122E-01  3000   0.250E+00    0.246E+01
DAV:  16    -0.408230764941E+03   -0.48684E-01   -0.56841E-02  3048   0.457E-01    0.246E+01
DAV:  17    -0.405561022799E+03    0.26697E+01   -0.16097E+00  3064   0.264E+00    0.205E+01
DAV:  18    -0.402209670770E+03    0.33514E+01   -0.42491E+00  3056   0.414E+00    0.120E+01
DAV:  19    -0.402623781170E+03   -0.41411E+00   -0.11008E+00  2976   0.298E+00    0.127E+01
DAV:  20    -0.401994308415E+03    0.62947E+00   -0.33567E-01  2496   0.162E+00    0.106E+01
DAV:  21    -0.401158156516E+03    0.83615E+00   -0.61704E-01  2944   0.200E+00    0.775E+00
DAV:  22    -0.401167286405E+03   -0.91299E-02   -0.59128E-02  2536   0.687E-01    0.775E+00
DAV:  23    -0.401053197359E+03    0.11409E+00   -0.30658E-02  3104   0.246E-01    0.728E+00
DAV:  24    -0.400374164451E+03    0.67903E+00   -0.14748E+00  3040   0.220E+00    0.321E+00
DAV:  25    -0.400265484319E+03    0.10868E+00   -0.53038E-01  2760   0.171E+00    0.223E+00
DAV:  26    -0.400251404344E+03    0.14080E-01   -0.63428E-02  3048   0.609E-01    0.195E+00
DAV:  27    -0.400258368038E+03   -0.69637E-02   -0.29476E-02  3040   0.395E-01    0.182E+00
DAV:  28    -0.400254615685E+03    0.37524E-02   -0.47831E-03  3040   0.144E-01    0.169E+00
DAV:  29    -0.400249912368E+03    0.47033E-02   -0.20237E-02  3080   0.258E-01    0.127E+00
DAV:  30    -0.400251808641E+03   -0.18963E-02   -0.30100E-03  2832   0.136E-01    0.122E+00
DAV:  31    -0.400251720353E+03    0.88289E-04   -0.66305E-04  2400   0.553E-02    0.108E+00
DAV:  32    -0.400249652672E+03    0.20677E-02   -0.65630E-04  2552   0.662E-02    0.970E-01
DAV:  33    -0.400243971094E+03    0.56816E-02   -0.43116E-03  2936   0.107E-01    0.681E-01
DAV:  34    -0.400241354758E+03    0.26163E-02   -0.23265E-03  2904   0.810E-02    0.463E-01
DAV:  35    -0.400240366120E+03    0.98864E-03   -0.74444E-04  3128   0.529E-02    0.340E-01
DAV:  36    -0.400239357248E+03    0.10089E-02   -0.96526E-04  3088   0.510E-02    0.235E-01
DAV:  37    -0.400239035558E+03    0.32169E-03   -0.35739E-04  2824   0.378E-02    0.164E-01
DAV:  38    -0.400238881505E+03    0.15405E-03   -0.19478E-04  3104   0.219E-02    0.104E-01
DAV:  39    -0.400238820673E+03    0.60832E-04   -0.83664E-05  2760   0.173E-02    0.577E-02
DAV:  40    -0.400238802609E+03    0.18064E-04   -0.42518E-05  2680   0.118E-02    0.272E-02
DAV:  41    -0.400238797155E+03    0.54544E-05   -0.14952E-05  1800   0.751E-03    0.816E-03
DAV:  42    -0.400238797489E+03   -0.33393E-06   -0.73105E-06  1408   0.596E-03
   1 F= -.40023880E+03 E0= -.40018429E+03  d E =-.109019E+00
 running on   16 total cores
 distrk:  each k-point on    8 cores,    2 groups
 distr:  one band on    4 cores,    2 groups
 using from now: INCAR     
 vasp.5.4.4.18Apr17-6-g9f103f2a35 (build Nov 27 2019 20:08:17) complex          
  
 POSCAR found type information on POSCAR  Ti
 POSCAR found :  1 types and      36 ions
 scaLAPACK will be used

 ----------------------------------------------------------------------------- 
|                                                                             |
|           W    W    AA    RRRRR   N    N  II  N    N   GGGG   !!!           |
|           W    W   A  A   R    R  NN   N  II  NN   N  G    G  !!!           |
|           W    W  A    A  R    R  N N  N  II  N N  N  G       !!!           |
|           W WW W  AAAAAA  RRRRR   N  N N  II  N  N N  G  GGG   !            |
|           WW  WW  A    A  R   R   N   NN  II  N   NN  G    G                |
|           W    W  A    A  R    R  N    N  II  N    N   GGGG   !!!           |
|                                                                             |
|      You have enabled k-point parallelism (KPAR>1).                         |
|      This developmental code was originally  written by Paul Kent at ORNL,  |
|      and carefully double checked in Vienna.                                |
|      GW as well as linear response parallelism added by Martijn Marsman     |
|      and Georg Kresse.                                                      |
|      Carefully verify results versus KPAR=1.                                |
|      Report problems to Paul Kent and Vienna.                               |
|                                                                             |
 ----------------------------------------------------------------------------- 

 LDA part: xc-table for Pade appr. of Perdew
 POSCAR found type information on POSCAR  Ti
 POSCAR found :  1 types and      36 ions
 POSCAR, INCAR and KPOINTS ok, starting setup
 FFT: planning ...
 WAVECAR not read
 WARNING: random wavefunctions but no delay for mixing, default for NELMDL
 entering main loop
       N       E                     dE             d eps       ncg     rms          rms(c)
DAV:   1     0.727533573767E+03    0.72753E+03   -0.40465E+04  1288   0.107E+03
DAV:   2    -0.185135397822E+03   -0.91267E+03   -0.87659E+03  1288   0.243E+02
DAV:   3    -0.320456774616E+03   -0.13532E+03   -0.12682E+03  1976   0.864E+01
DAV:   4    -0.330624977705E+03   -0.10168E+02   -0.94916E+01  1896   0.285E+01
DAV:   5    -0.331136402267E+03   -0.51142E+00   -0.50105E+00  2048   0.574E+00    0.782E+01
DAV:   6    -0.501376879334E+03   -0.17024E+03   -0.29014E+03  2432   0.990E+01    0.998E+01
DAV:   7    -0.286578595354E+03    0.21480E+03   -0.39392E+03  2204   0.177E+02    0.340E+01
DAV:   8    -0.285642499740E+03    0.93610E+00   -0.57429E+02  1904   0.778E+01    0.388E+01
DAV:   9    -0.268752831308E+03    0.16890E+02   -0.90804E+01  2016   0.313E+01    0.290E+01
DAV:  10    -0.266765991755E+03    0.19868E+01   -0.66914E+00  2072   0.693E+00    0.271E+01
DAV:  11    -0.265484259230E+03    0.12817E+01   -0.89980E-01  2168   0.248E+00    0.253E+01
DAV:  12    -0.261137577017E+03    0.43467E+01   -0.14560E+01  1924   0.116E+01    0.185E+01
DAV:  13    -0.256303578385E+03    0.48340E+01   -0.24590E+01  2152   0.127E+01    0.679E+00
DAV:  14    -0.256096795740E+03    0.20678E+00   -0.20744E+00  2024   0.409E+00    0.487E+00
DAV:  15    -0.256305044498E+03   -0.20825E+00   -0.14318E+00  2008   0.302E+00    0.581E+00
DAV:  16    -0.255919107461E+03    0.38594E+00   -0.30261E+00  2064   0.447E+00    0.317E+00
DAV:  17    -0.255802360117E+03    0.11675E+00   -0.42587E-01  1984   0.208E+00    0.153E+00
DAV:  18    -0.255792248296E+03    0.10112E-01   -0.44781E-01  2088   0.203E+00    0.107E+00
DAV:  19    -0.255837351807E+03   -0.45104E-01   -0.58931E-01  1952   0.205E+00    0.200E+00
DAV:  20    -0.255807437329E+03    0.29914E-01   -0.10357E-01  2024   0.976E-01    0.105E+00
DAV:  21    -0.255794027705E+03    0.13410E-01   -0.11199E-01  2008   0.966E-01    0.265E-01
DAV:  22    -0.255794358598E+03   -0.33089E-03   -0.10215E-02  1924   0.269E-01    0.201E-01
DAV:  23    -0.255795072319E+03   -0.71372E-03   -0.31768E-03  1960   0.122E-01    0.143E-01
DAV:  24    -0.255795078934E+03   -0.66155E-05   -0.20413E-03  2060   0.134E-01    0.548E-02
DAV:  25    -0.255795258663E+03   -0.17973E-03   -0.39093E-04  1824   0.540E-02    0.469E-02
DAV:  26    -0.255795424908E+03   -0.16625E-03   -0.37362E-04  1952   0.490E-02    0.444E-02
DAV:  27    -0.255795620418E+03   -0.19551E-03   -0.20733E-04  1896   0.432E-02    0.164E-02
DAV:  28    -0.255795789280E+03   -0.16886E-03   -0.47045E-05  1720   0.190E-02    0.114E-02
DAV:  29    -0.255795895245E+03   -0.10597E-03   -0.50517E-05  1752   0.191E-02    0.192E-02
DAV:  30    -0.255795917429E+03   -0.22183E-04   -0.89891E-06  1048   0.120E-02    0.818E-03
DAV:  31    -0.255795921820E+03   -0.43909E-05   -0.62641E-06   928   0.559E-03
   1 F= -.25579592E+03 E0= -.25572714E+03  d E =-.137555E+00
 running on   16 total cores
 distrk:  each k-point on    8 cores,    2 groups
 distr:  one band on    4 cores,    2 groups
 using from now: INCAR     
 vasp.5.4.4.18Apr17-6-g9f103f2a35 (build Nov 27 2019 20:08:17) complex          
  
 POSCAR found type information on POSCAR  Ti
 POSCAR found :  1 types and      90 ions
 scaLAPACK will be used

 ----------------------------------------------------------------------------- 
|                                                                             |
|           W    W    AA    RRRRR   N    N  II  N    N   GGGG   !!!           |
|           W    W   A  A   R    R  NN   N  II  NN   N  G    G  !!!           |
|           W    W  A    A  R    R  N N  N  II  N N  N  G       !!!           |
|           W WW W  AAAAAA  RRRRR   N  N N  II  N  N N  G  GGG   !            |
|           WW  WW  A    A  R   R   N   NN  II  N   NN  G    G                |
|           W    W  A    A  R    R  N    N  II  N    N   GGGG   !!!           |
|                                                                             |
|      You have enabled k-point parallelism (KPAR>1).                         |
|      This developmental code was originally  written by Paul Kent at ORNL,  |
|      and carefully double checked in Vienna.                                |
|      GW as well as linear response parallelism added by Martijn Marsman     |
|      and Georg Kresse.                                                      |
|      Carefully verify results versus KPAR=1.                                |
|      Report problems to Paul Kent and Vienna.                               |
|                                                                             |
 ----------------------------------------------------------------------------- 

 LDA part: xc-table for Pade appr. of Perdew
 POSCAR found type information on POSCAR  Ti
 POSCAR found :  1 types and      90 ions
 POSCAR, INCAR and KPOINTS ok, starting setup
 FFT: planning ...
 WAVECAR not read
 WARNING: random wavefunctions but no delay for mixing, default for NELMDL
 entering main loop
       N       E                     dE             d eps       ncg     rms          rms(c)
DAV:   1     0.154776457554E+04    0.15478E+04   -0.10322E+05  3164   0.124E+03
DAV:   2    -0.465835568912E+03   -0.20136E+04   -0.19578E+04  3164   0.277E+02
DAV:   3    -0.764306956132E+03   -0.29847E+03   -0.27842E+03  4656   0.964E+01
DAV:   4    -0.789056953129E+03   -0.24750E+02   -0.23219E+02  4664   0.284E+01
DAV:   5    -0.790071253256E+03   -0.10143E+01   -0.98778E+00  4544   0.457E+00    0.118E+02
DAV:   6    -0.191215971328E+04   -0.11221E+04   -0.10731E+04  6266   0.168E+02    0.147E+02
DAV:   7    -0.106120791629E+04    0.85095E+03   -0.18063E+04  5772   0.178E+02    0.954E+01
DAV:   8    -0.686165088619E+03    0.37504E+03   -0.33598E+03  4978   0.138E+02    0.602E+01
DAV:   9    -0.712617190254E+03   -0.26452E+02   -0.11553E+03  5368   0.662E+01    0.517E+01
DAV:  10    -0.705206790397E+03    0.74104E+01   -0.23421E+02  5088   0.279E+01    0.403E+01
DAV:  11    -0.704946804903E+03    0.25999E+00   -0.16826E+01  4960   0.747E+00    0.399E+01
DAV:  12    -0.705254170084E+03   -0.30737E+00   -0.11956E+00  4920   0.133E+00    0.402E+01
DAV:  13    -0.705272037051E+03   -0.17867E-01   -0.12291E-01  5080   0.345E-01    0.402E+01
DAV:  14    -0.705432613955E+03   -0.16058E+00   -0.36705E-01  5056   0.119E+00    0.403E+01
DAV:  15    -0.706631343902E+03   -0.11987E+01   -0.31351E+00  4832   0.343E+00    0.404E+01
DAV:  16    -0.706389159414E+03    0.24218E+00   -0.32964E+00  4984   0.379E+00    0.397E+01
DAV:  17    -0.705156716500E+03    0.12324E+01   -0.11309E+00  4960   0.232E+00    0.382E+01
DAV:  18    -0.701773845267E+03    0.33829E+01   -0.43724E+00  4704   0.486E+00    0.343E+01
DAV:  19    -0.691054479423E+03    0.10719E+02   -0.96462E+00  4544   0.706E+00    0.259E+01
DAV:  20    -0.685646990323E+03    0.54075E+01   -0.89993E+00  4304   0.708E+00    0.188E+01
DAV:  21    -0.684328441391E+03    0.13185E+01   -0.17875E+00  4840   0.301E+00    0.155E+01
DAV:  22    -0.683768848387E+03    0.55959E+00   -0.83063E-01  5032   0.179E+00    0.137E+01
DAV:  23    -0.683357971910E+03    0.41088E+00   -0.80492E-01  5040   0.178E+00    0.120E+01
DAV:  24    -0.682464905344E+03    0.89307E+00   -0.17089E+00  4776   0.287E+00    0.853E+00
DAV:  25    -0.681799112972E+03    0.66579E+00   -0.15860E+00  4632   0.284E+00    0.688E+00
DAV:  26    -0.681713476860E+03    0.85636E-01   -0.34287E+00  4832   0.405E+00    0.560E+00
DAV:  27    -0.682824506295E+03   -0.11110E+01   -0.31846E+00  5088   0.366E+00    0.971E+00
DAV:  28    -0.681861836060E+03    0.96267E+00   -0.16742E+00  4704   0.294E+00    0.626E+00
DAV:  29    -0.681540361708E+03    0.32147E+00   -0.44898E-01  5048   0.128E+00    0.483E+00
DAV:  30    -0.681186078970E+03    0.35428E+00   -0.49505E-01  5000   0.140E+00    0.283E+00
DAV:  31    -0.681221915323E+03   -0.35836E-01   -0.87670E-02  4552   0.730E-01    0.303E+00
DAV:  32    -0.681211280584E+03    0.10635E-01   -0.18109E-02  4832   0.275E-01    0.295E+00
DAV:  33    -0.681177095099E+03    0.34185E-01   -0.15631E-02  4936   0.245E-01    0.269E+00
DAV:  34    -0.681078351181E+03    0.98744E-01   -0.13674E-01  4944   0.719E-01    0.155E+00
DAV:  35    -0.681036118341E+03    0.42233E-01   -0.18748E-01  5040   0.818E-01    0.646E-01
DAV:  36    -0.681034504987E+03    0.16134E-02   -0.23666E-02  4504   0.332E-01    0.457E-01
DAV:  37    -0.681030966265E+03    0.35387E-02   -0.20161E-02  5008   0.275E-01    0.314E-01
DAV:  38    -0.681030874801E+03    0.91464E-04   -0.48478E-03  4984   0.121E-01    0.229E-01
DAV:  39    -0.681030667843E+03    0.20696E-03   -0.12879E-03  4464   0.848E-02    0.147E-01
DAV:  40    -0.681030324035E+03    0.34381E-03   -0.15727E-03  4856   0.859E-02    0.520E-02
DAV:  41    -0.681030311285E+03    0.12750E-04   -0.28138E-04  4328   0.431E-02    0.229E-02
DAV:  42    -0.681030308852E+03    0.24335E-05   -0.46791E-05  4008   0.150E-02
   1 F= -.68103031E+03 E0= -.68093352E+03  d E =-.193583E+00
Distance=1.750
 running on   16 total cores
 distrk:  each k-point on    8 cores,    2 groups
 distr:  one band on    4 cores,    2 groups
 using from now: INCAR     
 vasp.5.4.4.18Apr17-6-g9f103f2a35 (build Nov 27 2019 20:08:17) complex          
  
 POSCAR found type information on POSCAR  Ti
 POSCAR found :  1 types and      54 ions
 scaLAPACK will be used

 ----------------------------------------------------------------------------- 
|                                                                             |
|           W    W    AA    RRRRR   N    N  II  N    N   GGGG   !!!           |
|           W    W   A  A   R    R  NN   N  II  NN   N  G    G  !!!           |
|           W    W  A    A  R    R  N N  N  II  N N  N  G       !!!           |
|           W WW W  AAAAAA  RRRRR   N  N N  II  N  N N  G  GGG   !            |
|           WW  WW  A    A  R   R   N   NN  II  N   NN  G    G                |
|           W    W  A    A  R    R  N    N  II  N    N   GGGG   !!!           |
|                                                                             |
|      You have enabled k-point parallelism (KPAR>1).                         |
|      This developmental code was originally  written by Paul Kent at ORNL,  |
|      and carefully double checked in Vienna.                                |
|      GW as well as linear response parallelism added by Martijn Marsman     |
|      and Georg Kresse.                                                      |
|      Carefully verify results versus KPAR=1.                                |
|      Report problems to Paul Kent and Vienna.                               |
|                                                                             |
 ----------------------------------------------------------------------------- 

 LDA part: xc-table for Pade appr. of Perdew
 POSCAR found type information on POSCAR  Ti
 POSCAR found :  1 types and      54 ions
 POSCAR, INCAR and KPOINTS ok, starting setup
 FFT: planning ...
 WAVECAR not read
 entering main loop
       N       E                     dE             d eps       ncg     rms          rms(c)
DAV:   1     0.994050728018E+03    0.99405E+03   -0.61919E+04  1904   0.115E+03
DAV:   2    -0.281498937713E+03   -0.12755E+04   -0.12364E+04  1904   0.256E+02
DAV:   3    -0.468447656710E+03   -0.18695E+03   -0.17768E+03  2960   0.878E+01
DAV:   4    -0.485176482769E+03   -0.16729E+02   -0.15841E+02  3072   0.273E+01
DAV:   5    -0.486214825828E+03   -0.10383E+01   -0.98514E+00  3024   0.552E+00    0.858E+01
DAV:   6    -0.924293107202E+03   -0.43808E+03   -0.53670E+03  3776   0.108E+02    0.127E+02
DAV:   7    -0.438936424221E+03    0.48536E+03   -0.70863E+03  3400   0.158E+02    0.485E+01
DAV:   8    -0.407937863813E+03    0.30999E+02   -0.10491E+03  3128   0.916E+01    0.325E+01
DAV:   9    -0.415658634543E+03   -0.77208E+01   -0.19531E+02  3160   0.273E+01    0.292E+01
DAV:  10    -0.417782066006E+03   -0.21234E+01   -0.18927E+01  3152   0.778E+00    0.311E+01
DAV:  11    -0.417721619614E+03    0.60446E-01   -0.15891E+00  3096   0.164E+00    0.310E+01
DAV:  12    -0.417572589418E+03    0.14903E+00   -0.30815E+00  3088   0.435E+00    0.309E+01
DAV:  13    -0.415171795561E+03    0.24008E+01   -0.87299E-01  2440   0.284E+00    0.310E+01
DAV:  14    -0.414741797853E+03    0.43000E+00   -0.45431E+01  3056   0.169E+01    0.325E+01
DAV:  15    -0.414089982555E+03    0.65182E+00   -0.18471E+00  2976   0.370E+00    0.320E+01
DAV:  16    -0.414111224006E+03   -0.21241E-01   -0.13307E-01  3088   0.753E-01    0.319E+01
DAV:  17    -0.408302164239E+03    0.58091E+01   -0.40513E+00  3144   0.464E+00    0.225E+01
DAV:  18    -0.407542598239E+03    0.75957E+00   -0.64693E-01  2416   0.257E+00    0.206E+01
DAV:  19    -0.407180734779E+03    0.36186E+00   -0.85806E-02  3160   0.539E-01    0.205E+01
DAV:  20    -0.406562784998E+03    0.61795E+00   -0.56356E-02  3120   0.551E-01    0.196E+01
DAV:  21    -0.401695902434E+03    0.48669E+01   -0.62114E+00  3120   0.546E+00    0.111E+01
DAV:  22    -0.402214040860E+03   -0.51814E+00   -0.43815E-01  2560   0.225E+00    0.118E+01
DAV:  23    -0.401469766925E+03    0.74427E+00   -0.42299E-01  3088   0.128E+00    0.957E+00
DAV:  24    -0.400557946423E+03    0.91182E+00   -0.12452E+00  3048   0.223E+00    0.542E+00
DAV:  25    -0.400476981068E+03    0.80965E-01   -0.17010E-01  3104   0.966E-01    0.461E+00
DAV:  26    -0.400410253653E+03    0.66727E-01   -0.69417E-02  2576   0.764E-01    0.380E+00
DAV:  27    -0.400318213142E+03    0.92041E-01   -0.82184E-02  3120   0.525E-01    0.274E+00
DAV:  28    -0.400318998364E+03   -0.78522E-03   -0.10243E-02  2560   0.286E-01    0.265E+00
DAV:  29    -0.400282988460E+03    0.36010E-01   -0.40667E-02  3072   0.443E-01    0.227E+00
DAV:  30    -0.400277642683E+03    0.53458E-02   -0.48306E-03  2832   0.178E-01    0.201E+00
DAV:  31    -0.400274983598E+03    0.26591E-02   -0.20974E-03  2744   0.118E-01    0.180E+00
DAV:  32    -0.400269055056E+03    0.59285E-02   -0.12326E-03  3040   0.646E-02    0.164E+00
DAV:  33    -0.400251757225E+03    0.17298E-01   -0.15975E-02  3056   0.222E-01    0.107E+00
DAV:  34    -0.400248758828E+03    0.29984E-02   -0.21087E-03  2952   0.937E-02    0.928E-01
DAV:  35    -0.400242773589E+03    0.59852E-02   -0.46726E-03  3016   0.109E-01    0.585E-01
DAV:  36    -0.400240261384E+03    0.25122E-02   -0.25821E-03  2816   0.896E-02    0.360E-01
DAV:  37    -0.400239028367E+03    0.12330E-02   -0.21520E-03  3144   0.827E-02    0.171E-01
DAV:  38    -0.400238885589E+03    0.14278E-03   -0.56595E-04  3032   0.464E-02    0.891E-02
DAV:  39    -0.400238830041E+03    0.55548E-04   -0.18722E-04  3104   0.259E-02    0.466E-02
DAV:  40    -0.400238821139E+03    0.89025E-05   -0.63450E-05  2776   0.183E-02    0.221E-02
DAV:  41    -0.400238818811E+03    0.23273E-05   -0.13277E-05  1736   0.789E-03
   1 F= -.40023882E+03 E0= -.40018431E+03  d E =-.109020E+00
 running on   16 total cores
 distrk:  each k-point on    8 cores,    2 groups
 distr:  one band on    4 cores,    2 groups
 using from now: INCAR     
 vasp.5.4.4.18Apr17-6-g9f103f2a35 (build Nov 27 2019 20:08:17) complex          
  
 POSCAR found type information on POSCAR  Ti
 POSCAR found :  1 types and      36 ions
 scaLAPACK will be used

 ----------------------------------------------------------------------------- 
|                                                                             |
|           W    W    AA    RRRRR   N    N  II  N    N   GGGG   !!!           |
|           W    W   A  A   R    R  NN   N  II  NN   N  G    G  !!!           |
|           W    W  A    A  R    R  N N  N  II  N N  N  G       !!!           |
|           W WW W  AAAAAA  RRRRR   N  N N  II  N  N N  G  GGG   !            |
|           WW  WW  A    A  R   R   N   NN  II  N   NN  G    G                |
|           W    W  A    A  R    R  N    N  II  N    N   GGGG   !!!           |
|                                                                             |
|      You have enabled k-point parallelism (KPAR>1).                         |
|      This developmental code was originally  written by Paul Kent at ORNL,  |
|      and carefully double checked in Vienna.                                |
|      GW as well as linear response parallelism added by Martijn Marsman     |
|      and Georg Kresse.                                                      |
|      Carefully verify results versus KPAR=1.                                |
|      Report problems to Paul Kent and Vienna.                               |
|                                                                             |
 ----------------------------------------------------------------------------- 

 LDA part: xc-table for Pade appr. of Perdew
 POSCAR found type information on POSCAR  Ti
 POSCAR found :  1 types and      36 ions
 POSCAR, INCAR and KPOINTS ok, starting setup
 FFT: planning ...
 WAVECAR not read
 WARNING: random wavefunctions but no delay for mixing, default for NELMDL
 entering main loop
       N       E                     dE             d eps       ncg     rms          rms(c)
DAV:   1     0.724985593038E+03    0.72499E+03   -0.40479E+04  1288   0.107E+03
DAV:   2    -0.185548000872E+03   -0.91053E+03   -0.87367E+03  1288   0.242E+02
DAV:   3    -0.320238436640E+03   -0.13469E+03   -0.12627E+03  1960   0.862E+01
DAV:   4    -0.330635682659E+03   -0.10397E+02   -0.97475E+01  1944   0.284E+01
DAV:   5    -0.331137295158E+03   -0.50161E+00   -0.49130E+00  2016   0.572E+00    0.782E+01
DAV:   6    -0.502166403974E+03   -0.17103E+03   -0.29081E+03  2424   0.991E+01    0.997E+01
DAV:   7    -0.286689145528E+03    0.21548E+03   -0.39422E+03  2236   0.177E+02    0.340E+01
DAV:   8    -0.285275212687E+03    0.14139E+01   -0.57218E+02  1900   0.781E+01    0.385E+01
DAV:   9    -0.268725580847E+03    0.16550E+02   -0.88768E+01  2028   0.309E+01    0.290E+01
DAV:  10    -0.266742584124E+03    0.19830E+01   -0.66122E+00  2072   0.680E+00    0.271E+01
DAV:  11    -0.265184238769E+03    0.15583E+01   -0.10835E+00  2180   0.281E+00    0.249E+01
DAV:  12    -0.261403764475E+03    0.37805E+01   -0.12986E+01  1912   0.110E+01    0.192E+01
DAV:  13    -0.256324996270E+03    0.50788E+01   -0.23869E+01  2128   0.132E+01    0.685E+00
DAV:  14    -0.256084627310E+03    0.24037E+00   -0.22818E+00  2104   0.398E+00    0.476E+00
DAV:  15    -0.256203551154E+03   -0.11892E+00   -0.65394E-01  2048   0.220E+00    0.526E+00
DAV:  16    -0.255908908764E+03    0.29464E+00   -0.26189E+00  2080   0.419E+00    0.305E+00
DAV:  17    -0.255790874607E+03    0.11803E+00   -0.54002E-01  2032   0.234E+00    0.125E+00
DAV:  18    -0.255787050963E+03    0.38236E-02   -0.22865E-01  2064   0.140E+00    0.785E-01
DAV:  19    -0.255815098919E+03   -0.28048E-01   -0.26460E-01  1952   0.143E+00    0.144E+00
DAV:  20    -0.255800867742E+03    0.14231E-01   -0.13855E-01  1992   0.975E-01    0.669E-01
DAV:  21    -0.255794241853E+03    0.66259E-02   -0.36744E-02  1864   0.691E-01    0.279E-01
DAV:  22    -0.255794657328E+03   -0.41548E-03   -0.98645E-03  2080   0.240E-01    0.184E-01
DAV:  23    -0.255795309914E+03   -0.65259E-03   -0.19573E-03  1824   0.127E-01    0.978E-02
DAV:  24    -0.255795444822E+03   -0.13491E-03   -0.11913E-03  2008   0.990E-02    0.563E-02
DAV:  25    -0.255795685276E+03   -0.24045E-03   -0.41839E-04  2072   0.591E-02    0.346E-02
DAV:  26    -0.255795955839E+03   -0.27056E-03   -0.10495E-04  1744   0.273E-02    0.288E-02
DAV:  27    -0.255796153868E+03   -0.19803E-03   -0.11022E-04  1920   0.265E-02    0.177E-02
DAV:  28    -0.255796311906E+03   -0.15804E-03   -0.14516E-05  1272   0.137E-02    0.112E-02
DAV:  29    -0.255796401863E+03   -0.89957E-04   -0.80805E-06  1032   0.679E-03    0.776E-03
DAV:  30    -0.255796412716E+03   -0.10853E-04   -0.44734E-06   896   0.574E-03    0.393E-03
DAV:  31    -0.255796423441E+03   -0.10725E-04   -0.61490E-06   936   0.571E-03    0.442E-03
DAV:  32    -0.255796432646E+03   -0.92058E-05   -0.31336E-06   896   0.484E-03    0.495E-03
DAV:  33    -0.255796433216E+03   -0.56954E-06   -0.87454E-07   896   0.324E-03
   1 F= -.25579643E+03 E0= -.25572766E+03  d E =-.137544E+00
[...]
DAV:  35    -0.680204143905E+03    0.36364E-05   -0.15555E-05  2592   0.101E-02
   1 F= -.68020414E+03 E0= -.68010914E+03  d E =-.189999E+00
Distance=2.450
 running on   16 total cores
 distrk:  each k-point on    8 cores,    2 groups
 distr:  one band on    4 cores,    2 groups
 using from now: INCAR     
 vasp.5.4.4.18Apr17-6-g9f103f2a35 (build Nov 27 2019 20:08:17) complex          
  
 POSCAR found type information on POSCAR  Ti
 POSCAR found :  1 types and      54 ions
 scaLAPACK will be used

 ----------------------------------------------------------------------------- 
|                                                                             |
|           W    W    AA    RRRRR   N    N  II  N    N   GGGG   !!!           |
|           W    W   A  A   R    R  NN   N  II  NN   N  G    G  !!!           |
|           W    W  A    A  R    R  N N  N  II  N N  N  G       !!!           |
|           W WW W  AAAAAA  RRRRR   N  N N  II  N  N N  G  GGG   !            |
|           WW  WW  A    A  R   R   N   NN  II  N   NN  G    G                |
|           W    W  A    A  R    R  N    N  II  N    N   GGGG   !!!           |
|                                                                             |
|      You have enabled k-point parallelism (KPAR>1).                         |
|      This developmental code was originally  written by Paul Kent at ORNL,  |
|      and carefully double checked in Vienna.                                |
|      GW as well as linear response parallelism added by Martijn Marsman     |
|      and Georg Kresse.                                                      |
|      Carefully verify results versus KPAR=1.                                |
|      Report problems to Paul Kent and Vienna.                               |
|                                                                             |
 ----------------------------------------------------------------------------- 

 LDA part: xc-table for Pade appr. of Perdew
 POSCAR found type information on POSCAR  Ti
 POSCAR found :  1 types and      54 ions
 POSCAR, INCAR and KPOINTS ok, starting setup
 FFT: planning ...
 WAVECAR not read
 entering main loop
       N       E                     dE             d eps       ncg     rms          rms(c)
DAV:   1     0.101505003202E+04    0.10151E+04   -0.61918E+04  1904   0.115E+03
DAV:   2    -0.278788045983E+03   -0.12938E+04   -0.12536E+04  1904   0.255E+02
DAV:   3    -0.468007006542E+03   -0.18922E+03   -0.18013E+03  2984   0.872E+01
DAV:   4    -0.485134365125E+03   -0.17127E+02   -0.16242E+02  3096   0.276E+01
DAV:   5    -0.486199695472E+03   -0.10653E+01   -0.10062E+01  3024   0.560E+00    0.858E+01
DAV:   6    -0.924536076840E+03   -0.43834E+03   -0.53597E+03  3768   0.108E+02    0.128E+02
DAV:   7    -0.452170955352E+03    0.47237E+03   -0.74938E+03  3400   0.162E+02    0.505E+01
DAV:   8    -0.410404365070E+03    0.41767E+02   -0.11117E+03  3168   0.975E+01    0.344E+01
DAV:   9    -0.416490156608E+03   -0.60858E+01   -0.22528E+02  3168   0.308E+01    0.303E+01
DAV:  10    -0.418098259382E+03   -0.16081E+01   -0.23648E+01  3184   0.883E+00    0.315E+01
DAV:  11    -0.418243874762E+03   -0.14562E+00   -0.16384E+00  3048   0.177E+00    0.317E+01
DAV:  12    -0.421091639346E+03   -0.28478E+01   -0.88041E+00  3056   0.615E+00    0.337E+01
DAV:  13    -0.420079296377E+03    0.10123E+01   -0.74888E+00  3040   0.536E+00    0.334E+01
DAV:  14    -0.421788701109E+03   -0.17094E+01   -0.24422E+01  3112   0.943E+00    0.312E+01
DAV:  15    -0.443713316779E+03   -0.21925E+02   -0.11592E+02  3016   0.203E+01    0.385E+01
DAV:  16    -0.461492470266E+03   -0.17779E+02   -0.32167E+01  2944   0.102E+01    0.469E+01
DAV:  17    -0.471341868179E+03   -0.98494E+01   -0.58693E+00  3016   0.405E+00    0.497E+01
DAV:  18    -0.461920347093E+03    0.94215E+01   -0.32614E+00  2888   0.422E+00    0.458E+01
DAV:  19    -0.441292278400E+03    0.20628E+02   -0.16305E+01  2952   0.808E+00    0.348E+01
DAV:  20    -0.434689079307E+03    0.66032E+01   -0.26512E+00  3168   0.348E+00    0.317E+01
DAV:  21    -0.415848901081E+03    0.18840E+02   -0.19035E+01  2928   0.777E+00    0.219E+01
DAV:  22    -0.416021694611E+03   -0.17279E+00   -0.15766E+00  2976   0.300E+00    0.222E+01
DAV:  23    -0.413156869373E+03    0.28648E+01   -0.12045E+00  3096   0.160E+00    0.198E+01
DAV:  24    -0.413271276463E+03   -0.11441E+00   -0.12269E-01  2960   0.636E-01    0.198E+01
DAV:  25    -0.407293655561E+03    0.59776E+01   -0.39873E+00  2840   0.245E+00    0.156E+01
DAV:  26    -0.400742271374E+03    0.65514E+01   -0.17511E+01  2848   0.373E+00    0.840E+00
DAV:  27    -0.401968490360E+03   -0.12262E+01   -0.36577E+00  2856   0.366E+00    0.105E+01
DAV:  28    -0.401033309561E+03    0.93518E+00   -0.21858E+00  3024   0.309E+00    0.881E+00
DAV:  29    -0.401392999713E+03   -0.35969E+00   -0.14668E+01  3064   0.603E+00    0.932E+00
DAV:  30    -0.401074590681E+03    0.31841E+00   -0.13743E+00  2912   0.299E+00    0.730E+00
DAV:  31    -0.401192431212E+03   -0.11784E+00   -0.63017E-01  2800   0.147E+00    0.714E+00
DAV:  32    -0.401552060552E+03   -0.35963E+00   -0.39936E-01  2960   0.103E+00    0.759E+00
DAV:  33    -0.401312074806E+03    0.23999E+00   -0.70698E-01  2608   0.107E+00    0.759E+00
DAV:  34    -0.401195224531E+03    0.11685E+00   -0.25499E-01  2800   0.133E+00    0.742E+00
DAV:  35    -0.400710306115E+03    0.48492E+00   -0.53817E-01  3088   0.146E+00    0.536E+00
DAV:  36    -0.400590528247E+03    0.11978E+00   -0.11373E-01  3232   0.654E-01    0.462E+00
DAV:  37    -0.400374908256E+03    0.21562E+00   -0.28415E-01  3144   0.101E+00    0.296E+00
DAV:  38    -0.400324308964E+03    0.50599E-01   -0.72686E-02  3176   0.548E-01    0.223E+00
DAV:  39    -0.400310742898E+03    0.13566E-01   -0.20982E-02  2976   0.310E-01    0.215E+00
DAV:  40    -0.400254074793E+03    0.56668E-01   -0.29635E-01  3064   0.922E-01    0.836E-01
DAV:  41    -0.400249989924E+03    0.40849E-02   -0.21907E-02  2824   0.354E-01    0.643E-01
DAV:  42    -0.400244891980E+03    0.50979E-02   -0.12157E-02  3168   0.223E-01    0.471E-01
DAV:  43    -0.400243674968E+03    0.12170E-02   -0.63368E-03  3120   0.204E-01    0.293E-01
DAV:  44    -0.400244675213E+03   -0.10002E-02   -0.65371E-03  3144   0.150E-01    0.430E-01
DAV:  45    -0.400239432554E+03    0.52427E-02   -0.82876E-03  2856   0.153E-01    0.246E-01
DAV:  46    -0.400238649663E+03    0.78289E-03   -0.27629E-03  2984   0.691E-02    0.172E-01
DAV:  47    -0.400238379359E+03    0.27030E-03   -0.12464E-03  3104   0.688E-02    0.610E-02
DAV:  48    -0.400238434902E+03   -0.55544E-04   -0.28214E-04  2648   0.464E-02    0.498E-02
DAV:  49    -0.400238422012E+03    0.12891E-04   -0.17096E-04  2920   0.332E-02    0.392E-02
DAV:  50    -0.400238434366E+03   -0.12354E-04   -0.38214E-05  2288   0.128E-02    0.238E-02
DAV:  51    -0.400238438998E+03   -0.46326E-05   -0.94921E-05  2776   0.154E-02    0.145E-02
DAV:  52    -0.400238447116E+03   -0.81179E-05   -0.17872E-05  1896   0.116E-02    0.145E-02
DAV:  53    -0.400238440761E+03    0.63554E-05   -0.59093E-06  1360   0.455E-03    0.112E-02
DAV:  54    -0.400238440303E+03    0.45751E-06   -0.26914E-06  1264   0.411E-03
   1 F= -.40023844E+03 E0= -.40018396E+03  d E =-.108952E+00
 running on   16 total cores
 distrk:  each k-point on    8 cores,    2 groups
 distr:  one band on    4 cores,    2 groups
 using from now: INCAR     
 vasp.5.4.4.18Apr17-6-g9f103f2a35 (build Nov 27 2019 20:08:17) complex          
  
 POSCAR found type information on POSCAR  Ti
 POSCAR found :  1 types and      36 ions
 scaLAPACK will be used

 ----------------------------------------------------------------------------- 
|                                                                             |
|           W    W    AA    RRRRR   N    N  II  N    N   GGGG   !!!           |
|           W    W   A  A   R    R  NN   N  II  NN   N  G    G  !!!           |
|           W    W  A    A  R    R  N N  N  II  N N  N  G       !!!           |
|           W WW W  AAAAAA  RRRRR   N  N N  II  N  N N  G  GGG   !            |
|           WW  WW  A    A  R   R   N   NN  II  N   NN  G    G                |
|           W    W  A    A  R    R  N    N  II  N    N   GGGG   !!!           |
|                                                                             |
|      You have enabled k-point parallelism (KPAR>1).                         |
|      This developmental code was originally  written by Paul Kent at ORNL,  |
|      and carefully double checked in Vienna.                                |
|      GW as well as linear response parallelism added by Martijn Marsman     |
|      and Georg Kresse.                                                      |
|      Carefully verify results versus KPAR=1.                                |
|      Report problems to Paul Kent and Vienna.                               |
|                                                                             |
 ----------------------------------------------------------------------------- 

 LDA part: xc-table for Pade appr. of Perdew
 POSCAR found type information on POSCAR  Ti
 POSCAR found :  1 types and      36 ions
 POSCAR, INCAR and KPOINTS ok, starting setup
 FFT: planning ...
 WAVECAR not read
 WARNING: random wavefunctions but no delay for mixing, default for NELMDL
 entering main loop
       N       E                     dE             d eps       ncg     rms          rms(c)
DAV:   1     0.729483899261E+03    0.72948E+03   -0.40282E+04  1288   0.106E+03
DAV:   2    -0.185895008737E+03   -0.91538E+03   -0.87966E+03  1288   0.242E+02
DAV:   3    -0.320368647647E+03   -0.13447E+03   -0.12588E+03  1976   0.853E+01
DAV:   4    -0.330625059811E+03   -0.10256E+02   -0.95594E+01  1928   0.281E+01
DAV:   5    -0.331134415284E+03   -0.50936E+00   -0.50009E+00  2016   0.572E+00    0.782E+01
DAV:   6    -0.507368199998E+03   -0.17623E+03   -0.29827E+03  2428   0.100E+02    0.100E+02
DAV:   7    -0.288248092765E+03    0.21912E+03   -0.40845E+03  2236   0.180E+02    0.345E+01
DAV:   8    -0.285045640222E+03    0.32025E+01   -0.58638E+02  1880   0.797E+01    0.383E+01
DAV:   9    -0.269159562242E+03    0.15886E+02   -0.82196E+01  2020   0.293E+01    0.294E+01
DAV:  10    -0.267535705645E+03    0.16239E+01   -0.60900E+00  2088   0.646E+00    0.279E+01
DAV:  11    -0.266119173309E+03    0.14165E+01   -0.95503E-01  2136   0.263E+00    0.260E+01
DAV:  12    -0.262469397038E+03    0.36498E+01   -0.90980E+00  1912   0.921E+00    0.210E+01
DAV:  13    -0.256383751970E+03    0.60856E+01   -0.28543E+01  2128   0.148E+01    0.738E+00
DAV:  14    -0.256103329525E+03    0.28042E+00   -0.27155E+00  2080   0.427E+00    0.509E+00
DAV:  15    -0.256209496150E+03   -0.10617E+00   -0.60710E-01  2048   0.217E+00    0.544E+00
DAV:  16    -0.255973470112E+03    0.23603E+00   -0.28653E+00  2072   0.419E+00    0.364E+00
DAV:  17    -0.255797710525E+03    0.17576E+00   -0.82673E-01  2056   0.286E+00    0.151E+00
DAV:  18    -0.255782677587E+03    0.15033E-01   -0.18592E-01  2016   0.125E+00    0.798E-01
DAV:  19    -0.255798971130E+03   -0.16294E-01   -0.10282E-01  1944   0.947E-01    0.101E+00
DAV:  20    -0.255796991291E+03    0.19798E-02   -0.14401E-01  1992   0.935E-01    0.696E-01
DAV:  21    -0.255790582867E+03    0.64084E-02   -0.26306E-02  1952   0.578E-01    0.175E-01
DAV:  22    -0.255794469898E+03   -0.38870E-02   -0.10408E-02  2080   0.245E-01    0.223E-01
DAV:  23    -0.255795334363E+03   -0.86446E-03   -0.30923E-03  1976   0.163E-01    0.481E-02
DAV:  24    -0.255796032628E+03   -0.69826E-03   -0.86560E-04  2048   0.780E-02    0.858E-02
DAV:  25    -0.255796190108E+03   -0.15748E-03   -0.12520E-03  2008   0.906E-02    0.587E-02
DAV:  26    -0.255796311576E+03   -0.12147E-03   -0.34597E-04  1936   0.560E-02    0.229E-02
DAV:  27    -0.255796368052E+03   -0.56475E-04   -0.70477E-05  1880   0.207E-02    0.269E-02
DAV:  28    -0.255796428834E+03   -0.60782E-04   -0.82764E-05  1808   0.254E-02    0.113E-02
DAV:  29    -0.255796530275E+03   -0.10144E-03   -0.13741E-05  1304   0.104E-02    0.119E-02
DAV:  30    -0.255796547629E+03   -0.17355E-04   -0.48343E-06   896   0.644E-03    0.105E-02
DAV:  31    -0.255796561859E+03   -0.14230E-04   -0.26574E-06   896   0.536E-03    0.526E-03
DAV:  32    -0.255796584460E+03   -0.22601E-04   -0.34922E-06   896   0.461E-03    0.259E-03
DAV:  33    -0.255796594372E+03   -0.99119E-05   -0.38950E-06   896   0.515E-03    0.465E-03
DAV:  34    -0.255796598383E+03   -0.40109E-05   -0.15934E-06   872   0.589E-03
   1 F= -.25579660E+03 E0= -.25572782E+03  d E =-.137550E+00
 running on   16 total cores
 distrk:  each k-point on    8 cores,    2 groups
 distr:  one band on    4 cores,    2 groups
 using from now: INCAR     
 vasp.5.4.4.18Apr17-6-g9f103f2a35 (build Nov 27 2019 20:08:17) complex          
  
 POSCAR found type information on POSCAR  Ti
 POSCAR found :  1 types and      90 ions
 scaLAPACK will be used

 ----------------------------------------------------------------------------- 
|                                                                             |
|           W    W    AA    RRRRR   N    N  II  N    N   GGGG   !!!           |
|           W    W   A  A   R    R  NN   N  II  NN   N  G    G  !!!           |
|           W    W  A    A  R    R  N N  N  II  N N  N  G       !!!           |
|           W WW W  AAAAAA  RRRRR   N  N N  II  N  N N  G  GGG   !            |
|           WW  WW  A    A  R   R   N   NN  II  N   NN  G    G                |
|           W    W  A    A  R    R  N    N  II  N    N   GGGG   !!!           |
|                                                                             |
|      You have enabled k-point parallelism (KPAR>1).                         |
|      This developmental code was originally  written by Paul Kent at ORNL,  |
|      and carefully double checked in Vienna.                                |
|      GW as well as linear response parallelism added by Martijn Marsman     |
|      and Georg Kresse.                                                      |
|      Carefully verify results versus KPAR=1.                                |
|      Report problems to Paul Kent and Vienna.                               |
|                                                                             |
 ----------------------------------------------------------------------------- 

 LDA part: xc-table for Pade appr. of Perdew
 POSCAR found type information on POSCAR  Ti
 POSCAR found :  1 types and      90 ions
 POSCAR, INCAR and KPOINTS ok, starting setup
 FFT: planning ...
 WAVECAR not read
 WARNING: random wavefunctions but no delay for mixing, default for NELMDL
 entering main loop
       N       E                     dE             d eps       ncg     rms          rms(c)
DAV:   1     0.148957712546E+04    0.14896E+04   -0.10287E+05  3164   0.123E+03
DAV:   2    -0.480615239560E+03   -0.19702E+04   -0.19167E+04  3164   0.274E+02
DAV:   3    -0.778801902874E+03   -0.29819E+03   -0.27972E+03  4840   0.941E+01
DAV:   4    -0.803620332380E+03   -0.24818E+02   -0.23673E+02  4776   0.276E+01
DAV:   5    -0.804642463878E+03   -0.10221E+01   -0.99355E+00  4656   0.425E+00    0.115E+02
DAV:   6    -0.141817739420E+04   -0.61353E+03   -0.62255E+03  6110   0.131E+02    0.891E+01
DAV:   7    -0.167855127698E+04   -0.26037E+03   -0.18261E+04  5812   0.150E+02    0.145E+02
DAV:   8    -0.632390847012E+03    0.10462E+04   -0.59105E+03  5686   0.170E+02    0.538E+01
DAV:   9    -0.716168603668E+03   -0.83778E+02   -0.20697E+03  5608   0.791E+01    0.531E+01
DAV:  10    -0.698671380836E+03    0.17497E+02   -0.60216E+02  5376   0.565E+01    0.360E+01
DAV:  11    -0.693135102979E+03    0.55363E+01   -0.82637E+01  5208   0.158E+01    0.292E+01
DAV:  12    -0.688228823405E+03    0.49063E+01   -0.54644E+01  5032   0.131E+01    0.227E+01
DAV:  13    -0.685170252494E+03    0.30586E+01   -0.26686E+01  5008   0.961E+00    0.162E+01
DAV:  14    -0.686676789759E+03   -0.15065E+01   -0.23472E+00  4896   0.260E+00    0.182E+01
DAV:  15    -0.686467034419E+03    0.20976E+00   -0.23786E-01  4888   0.899E-01    0.179E+01
DAV:  16    -0.684883294640E+03    0.15837E+01   -0.79024E-01  4520   0.208E+00    0.159E+01
DAV:  17    -0.682129111718E+03    0.27542E+01   -0.33935E+00  4792   0.425E+00    0.110E+01
DAV:  18    -0.680191370180E+03    0.19377E+01   -0.53905E+00  4752   0.520E+00    0.563E+00
DAV:  19    -0.680006575680E+03    0.18479E+00   -0.10618E+00  4896   0.201E+00    0.451E+00
DAV:  20    -0.680103097861E+03   -0.96522E-01   -0.60154E-01  4472   0.179E+00    0.452E+00
DAV:  21    -0.680060431784E+03    0.42666E-01   -0.31819E-01  4920   0.108E+00    0.423E+00
DAV:  22    -0.679805014829E+03    0.25542E+00   -0.65615E-01  5096   0.158E+00    0.212E+00
DAV:  23    -0.679764013004E+03    0.41002E-01   -0.20485E-01  4632   0.952E-01    0.133E+00
DAV:  24    -0.679746135448E+03    0.17878E-01   -0.44426E-02  4848   0.433E-01    0.966E-01
DAV:  25    -0.679742283617E+03    0.38518E-02   -0.26365E-02  4800   0.295E-01    0.887E-01
DAV:  26    -0.679732614696E+03    0.96689E-02   -0.23999E-02  4864   0.300E-01    0.599E-01
DAV:  27    -0.679727308692E+03    0.53060E-02   -0.16543E-02  4952   0.265E-01    0.301E-01
DAV:  28    -0.679726014116E+03    0.12946E-02   -0.97273E-03  4896   0.214E-01    0.167E-01
DAV:  29    -0.679725903837E+03    0.11028E-03   -0.15269E-03  4688   0.841E-02    0.143E-01
DAV:  30    -0.679725786604E+03    0.11723E-03   -0.56449E-04  4848   0.466E-02    0.747E-02
DAV:  31    -0.679725787104E+03   -0.50041E-06   -0.39403E-04  4936   0.429E-02    0.514E-02
DAV:  32    -0.679725820579E+03   -0.33475E-04   -0.24226E-04  4896   0.326E-02    0.634E-02
DAV:  33    -0.679725776631E+03    0.43948E-04   -0.87490E-05  4448   0.238E-02    0.386E-02
DAV:  34    -0.679725759176E+03    0.17455E-04   -0.61107E-05  4272   0.190E-02    0.168E-02
DAV:  35    -0.679725757190E+03    0.19857E-05   -0.84143E-06  2144   0.836E-03
   1 F= -.67972576E+03 E0= -.67963093E+03  d E =-.189645E+00

DISTANCE=1.550
E_alpha= -400.238615  E_beta= -255.796534  E_total= -677.724552 
W_seq=-21.689403

DISTANCE=1.600
E_alpha= -400.238306  E_beta= -255.796490  E_total= -679.147188 
W_seq=-23.112392

DISTANCE=1.650
E_alpha= -400.238569  E_beta= -255.795984  E_total= -680.227569 
W_seq=-24.193016

DISTANCE=1.700
E_alpha= -400.238797  E_beta= -255.795922  E_total= -681.030309 
W_seq=-24.995590

DISTANCE=1.750
E_alpha= -400.238819  E_beta= -255.796433  E_total= -681.611853 
W_seq=-25.576601

DISTANCE=1.800
E_alpha= -400.239097  E_beta= -255.796486  E_total= -682.017155 
W_seq=-25.981572

DISTANCE=1.850
E_alpha= -400.238857  E_beta= -255.796543  E_total= -682.280345 
W_seq=-26.244945

DISTANCE=1.900
E_alpha= -400.238797  E_beta= -255.796388  E_total= -682.429400 
W_seq=-26.394215

DISTANCE=1.950
E_alpha= -400.238544  E_beta= -255.796506  E_total= -682.483585 
W_seq=-26.448535

DISTANCE=2.000
E_alpha= -400.238432  E_beta= -255.796676  E_total= -682.456715 
W_seq=-26.421607

DISTANCE=2.050
E_alpha= -400.238223  E_beta= -255.796657  E_total= -682.359531 
W_seq=-26.324651

DISTANCE=2.100
E_alpha= -400.238387  E_beta= -255.796518  E_total= -682.200610 
W_seq=-26.165705

DISTANCE=2.150
E_alpha= -400.238978  E_beta= -255.796486  E_total= -681.986609 
W_seq=-25.951145

DISTANCE=2.200
E_alpha= -400.238483  E_beta= -255.795930  E_total= -681.719508 
W_seq=-25.685095

DISTANCE=2.250
E_alpha= -400.238703  E_beta= -255.795818  E_total= -681.405252 
W_seq=-25.370731

DISTANCE=2.300
E_alpha= -400.238611  E_beta= -255.796483  E_total= -681.046416 
W_seq=-25.011322

DISTANCE=2.350
E_alpha= -400.239033  E_beta= -255.796621  E_total= -680.645352 
W_seq=-24.609698

DISTANCE=2.400
E_alpha= -400.238959  E_beta= -255.796820  E_total= -680.204144 
W_seq=-24.168365

DISTANCE=2.450
E_alpha= -400.238440  E_beta= -255.796598  E_total= -679.725757 
W_seq=-23.690719

