Distance=0.500
 running on   16 total cores
 distrk:  each k-point on    8 cores,    2 groups
 distr:  one band on    4 cores,    2 groups
 using from now: INCAR     
 vasp.5.4.4.18Apr17-6-g9f103f2a35 (build Nov 27 2019 20:08:17) complex          
  
 POSCAR found type information on POSCAR  Ti
 POSCAR found :  1 types and      32 ions
 scaLAPACK will be used

 ----------------------------------------------------------------------------- 
|                                                                             |
|           W    W    AA    RRRRR   N    N  II  N    N   GGGG   !!!           |
|           W    W   A  A   R    R  NN   N  II  NN   N  G    G  !!!           |
|           W    W  A    A  R    R  N N  N  II  N N  N  G       !!!           |
|           W WW W  AAAAAA  RRRRR   N  N N  II  N  N N  G  GGG   !            |
|           WW  WW  A    A  R   R   N   NN  II  N   NN  G    G                |
|           W    W  A    A  R    R  N    N  II  N    N   GGGG   !!!           |
|                                                                             |
|      You have enabled k-point parallelism (KPAR>1).                         |
|      This developmental code was originally  written by Paul Kent at ORNL,  |
|      and carefully double checked in Vienna.                                |
|      GW as well as linear response parallelism added by Martijn Marsman     |
|      and Georg Kresse.                                                      |
|      Carefully verify results versus KPAR=1.                                |
|      Report problems to Paul Kent and Vienna.                               |
|                                                                             |
 ----------------------------------------------------------------------------- 

 LDA part: xc-table for Pade appr. of Perdew
 POSCAR found type information on POSCAR  Ti
 POSCAR found :  1 types and      32 ions
 POSCAR, INCAR and KPOINTS ok, starting setup
 FFT: planning ...
 WAVECAR not read
 entering main loop
       N       E                     dE             d eps       ncg     rms          rms(c)
DAV:   1     0.586938743902E+03    0.58694E+03   -0.36134E+04  1968   0.110E+03
DAV:   2    -0.166142686878E+03   -0.75308E+03   -0.72510E+03  1968   0.243E+02
DAV:   3    -0.277285301431E+03   -0.11114E+03   -0.10481E+03  3056   0.845E+01
DAV:   4    -0.286562938956E+03   -0.92776E+01   -0.86624E+01  3096   0.263E+01
DAV:   5    -0.287119158954E+03   -0.55622E+00   -0.52941E+00  3208   0.533E+00    0.670E+01
DAV:   6    -0.426551340544E+03   -0.13943E+03   -0.23556E+03  3672   0.968E+01    0.845E+01
DAV:   7    -0.248630867022E+03    0.17792E+03   -0.25477E+03  3416   0.155E+02    0.297E+01
DAV:   8    -0.253923232564E+03   -0.52924E+01   -0.50118E+02  3044   0.681E+01    0.315E+01
DAV:   9    -0.236158834021E+03    0.17764E+02   -0.10301E+02  3044   0.308E+01    0.198E+01
DAV:  10    -0.235682610601E+03    0.47622E+00   -0.10976E+01  3240   0.742E+00    0.178E+01
DAV:  11    -0.237304512661E+03   -0.16219E+01   -0.42811E+00  3264   0.507E+00    0.199E+01
DAV:  12    -0.234185777357E+03    0.31187E+01   -0.50814E+00  2934   0.821E+00    0.142E+01
DAV:  13    -0.230673841508E+03    0.35119E+01   -0.94242E+00  2846   0.113E+01    0.646E+00
DAV:  14    -0.230304352293E+03    0.36949E+00   -0.23444E+00  3224   0.381E+00    0.466E+00
DAV:  15    -0.230291286877E+03    0.13065E-01   -0.12804E+00  2872   0.407E+00    0.479E+00
DAV:  16    -0.230027589611E+03    0.26370E+00   -0.24248E+00  3086   0.404E+00    0.181E+00
DAV:  17    -0.230023162720E+03    0.44269E-02   -0.13836E-01  2960   0.117E+00    0.119E+00
DAV:  18    -0.230002863790E+03    0.20299E-01   -0.10729E-01  3144   0.911E-01    0.426E-01
DAV:  19    -0.230003377013E+03   -0.51322E-03   -0.27663E-02  3304   0.401E-01    0.257E-01
DAV:  20    -0.230005812914E+03   -0.24359E-02   -0.18824E-02  2928   0.495E-01    0.253E-01
DAV:  21    -0.230007156044E+03   -0.13431E-02   -0.69863E-03  2806   0.286E-01    0.135E-01
DAV:  22    -0.230008503407E+03   -0.13474E-02   -0.23575E-03  2880   0.138E-01    0.618E-02
DAV:  23    -0.230009550652E+03   -0.10472E-02   -0.51491E-04  2480   0.616E-02    0.627E-02
DAV:  24    -0.230009615455E+03   -0.64804E-04   -0.23265E-04  2992   0.460E-02    0.213E-02
DAV:  25    -0.230009634238E+03   -0.18782E-04   -0.55701E-05  2504   0.228E-02    0.135E-02
DAV:  26    -0.230009636080E+03   -0.18427E-05   -0.32688E-05  2544   0.159E-02
   1 F= -.23000964E+03 E0= -.22995181E+03  d E =-.115652E+00
 running on   16 total cores
 distrk:  each k-point on    8 cores,    2 groups
 distr:  one band on    4 cores,    2 groups
 using from now: INCAR     
 vasp.5.4.4.18Apr17-6-g9f103f2a35 (build Nov 27 2019 20:08:17) complex          
  
 POSCAR found type information on POSCAR  Ti
 POSCAR found :  1 types and      36 ions
 scaLAPACK will be used

 ----------------------------------------------------------------------------- 
|                                                                             |
|           W    W    AA    RRRRR   N    N  II  N    N   GGGG   !!!           |
|           W    W   A  A   R    R  NN   N  II  NN   N  G    G  !!!           |
|           W    W  A    A  R    R  N N  N  II  N N  N  G       !!!           |
|           W WW W  AAAAAA  RRRRR   N  N N  II  N  N N  G  GGG   !            |
|           WW  WW  A    A  R   R   N   NN  II  N   NN  G    G                |
|           W    W  A    A  R    R  N    N  II  N    N   GGGG   !!!           |
|                                                                             |
|      You have enabled k-point parallelism (KPAR>1).                         |
|      This developmental code was originally  written by Paul Kent at ORNL,  |
|      and carefully double checked in Vienna.                                |
|      GW as well as linear response parallelism added by Martijn Marsman     |
|      and Georg Kresse.                                                      |
|      Carefully verify results versus KPAR=1.                                |
|      Report problems to Paul Kent and Vienna.                               |
|                                                                             |
 ----------------------------------------------------------------------------- 

 LDA part: xc-table for Pade appr. of Perdew
 POSCAR found type information on POSCAR  Ti
 POSCAR found :  1 types and      36 ions
 POSCAR, INCAR and KPOINTS ok, starting setup
 FFT: planning ...
 WAVECAR not read
 WARNING: random wavefunctions but no delay for mixing, default for NELMDL
 entering main loop
       N       E                     dE             d eps       ncg     rms          rms(c)
DAV:   1     0.734236226663E+03    0.73424E+03   -0.41822E+04  2208   0.113E+03
DAV:   2    -0.191338601834E+03   -0.92557E+03   -0.88919E+03  2208   0.254E+02
DAV:   3    -0.324994652073E+03   -0.13366E+03   -0.12322E+03  3232   0.920E+01
DAV:   4    -0.334226508624E+03   -0.92319E+01   -0.84876E+01  3168   0.288E+01
DAV:   5    -0.334742269187E+03   -0.51576E+00   -0.49277E+00  3532   0.550E+00    0.824E+01
DAV:   6    -0.538670821260E+03   -0.20393E+03   -0.29656E+03  4160   0.960E+01    0.110E+02
DAV:   7    -0.291038114932E+03    0.24763E+03   -0.44467E+03  4072   0.165E+02    0.368E+01
DAV:   8    -0.280403563866E+03    0.10635E+02   -0.49206E+02  3172   0.760E+01    0.369E+01
DAV:   9    -0.275939985106E+03    0.44636E+01   -0.35223E+01  3704   0.134E+01    0.302E+01
DAV:  10    -0.279283741702E+03   -0.33438E+01   -0.38999E+00  3432   0.495E+00    0.338E+01
DAV:  11    -0.264441245843E+03    0.14842E+02   -0.35942E+01  3152   0.209E+01    0.110E+01
DAV:  12    -0.263447851633E+03    0.99339E+00   -0.33336E+00  3536   0.557E+00    0.770E+00
DAV:  13    -0.262699921292E+03    0.74793E+00   -0.14626E+00  2896   0.448E+00    0.438E+00
DAV:  14    -0.262464510270E+03    0.23541E+00   -0.10424E+00  3152   0.348E+00    0.210E+00
DAV:  15    -0.262461312724E+03    0.31975E-02   -0.51462E-02  3540   0.622E-01    0.147E+00
DAV:  16    -0.262469698504E+03   -0.83858E-02   -0.44716E-01  3448   0.190E+00    0.126E+00
DAV:  17    -0.262449729309E+03    0.19969E-01   -0.25307E-01  3160   0.166E+00    0.499E-01
DAV:  18    -0.262450909611E+03   -0.11803E-02   -0.21165E-02  3368   0.463E-01    0.294E-01
DAV:  19    -0.262457648483E+03   -0.67389E-02   -0.82145E-03  2852   0.285E-01    0.386E-01
DAV:  20    -0.262457435612E+03    0.21287E-03   -0.80116E-03  2584   0.335E-01    0.747E-02
DAV:  21    -0.262459299586E+03   -0.18640E-02   -0.79426E-04  2528   0.716E-02    0.317E-02
DAV:  22    -0.262459410533E+03   -0.11095E-03   -0.13801E-04  3176   0.232E-02    0.225E-02
DAV:  23    -0.262459460239E+03   -0.49706E-04   -0.77585E-05  2952   0.278E-02    0.138E-02
DAV:  24    -0.262459461712E+03   -0.14737E-05   -0.25996E-05  2616   0.194E-02
   1 F= -.26245946E+03 E0= -.26240700E+03  d E =-.104927E+00
 running on   16 total cores
 distrk:  each k-point on    8 cores,    2 groups
 distr:  one band on    4 cores,    2 groups
 using from now: INCAR     
 vasp.5.4.4.18Apr17-6-g9f103f2a35 (build Nov 27 2019 20:08:17) complex          
  
 POSCAR found type information on POSCAR  Ti
 POSCAR found :  1 types and      68 ions
 scaLAPACK will be used

 ----------------------------------------------------------------------------- 
|                                                                             |
|           W    W    AA    RRRRR   N    N  II  N    N   GGGG   !!!           |
|           W    W   A  A   R    R  NN   N  II  NN   N  G    G  !!!           |
|           W    W  A    A  R    R  N N  N  II  N N  N  G       !!!           |
|           W WW W  AAAAAA  RRRRR   N  N N  II  N  N N  G  GGG   !            |
|           WW  WW  A    A  R   R   N   NN  II  N   NN  G    G                |
|           W    W  A    A  R    R  N    N  II  N    N   GGGG   !!!           |
|                                                                             |
|      You have enabled k-point parallelism (KPAR>1).                         |
|      This developmental code was originally  written by Paul Kent at ORNL,  |
|      and carefully double checked in Vienna.                                |
|      GW as well as linear response parallelism added by Martijn Marsman     |
|      and Georg Kresse.                                                      |
|      Carefully verify results versus KPAR=1.                                |
|      Report problems to Paul Kent and Vienna.                               |
|                                                                             |
 ----------------------------------------------------------------------------- 

 LDA part: xc-table for Pade appr. of Perdew
 POSCAR found type information on POSCAR  Ti
 POSCAR found :  1 types and      68 ions

 ----------------------------------------------------------------------------- 
|                                                                             |
|           W    W    AA    RRRRR   N    N  II  N    N   GGGG   !!!           |
|           W    W   A  A   R    R  NN   N  II  NN   N  G    G  !!!           |
|           W    W  A    A  R    R  N N  N  II  N N  N  G       !!!           |
|           W WW W  AAAAAA  RRRRR   N  N N  II  N  N N  G  GGG   !            |
|           WW  WW  A    A  R   R   N   NN  II  N   NN  G    G                |
|           W    W  A    A  R    R  N    N  II  N    N   GGGG   !!!           |
|                                                                             |
|      The distance between some ions is very small                           |
|      please check the nearest neigbor list in the OUTCAR file               |
|          I HOPE YOU KNOW, WHAT YOU ARE  DOING                               |
|                                                                             |
 ----------------------------------------------------------------------------- 

 POSCAR, INCAR and KPOINTS ok, starting setup
 FFT: planning ...
 WAVECAR not read
 WARNING: random wavefunctions but no delay for mixing, default for NELMDL
 entering main loop
       N       E                     dE             d eps       ncg     rms          rms(c)
DAV:   1     0.121281576278E+04    0.12128E+04   -0.78374E+04  4128   0.124E+03
DAV:   2    -0.344508053779E+03   -0.15573E+04   -0.15107E+04  4128   0.279E+02
DAV:   3    -0.567947806291E+03   -0.22344E+03   -0.20727E+03  5936   0.984E+01
DAV:   4    -0.586507678262E+03   -0.18560E+02   -0.17295E+02  6072   0.287E+01
DAV:   5    -0.587297491794E+03   -0.78981E+00   -0.76492E+00  5904   0.485E+00    0.108E+02
DAV:   6    -0.134925732587E+04   -0.76196E+03   -0.77558E+03  8196   0.161E+02    0.134E+02
DAV:   7    -0.610079475440E+03    0.73918E+03   -0.91754E+03  7580   0.163E+02    0.650E+01
DAV:   8    -0.556498438922E+03    0.53581E+02   -0.20873E+03  7400   0.121E+02    0.633E+01
DAV:   9    -0.566060635829E+03   -0.95622E+01   -0.98679E+02  7432   0.892E+01    0.517E+01
DAV:  10    -0.524098636151E+03    0.41962E+02   -0.34317E+02  6904   0.495E+01    0.404E+01
DAV:  11    -0.518663907927E+03    0.54347E+01   -0.57856E+01  6648   0.177E+01    0.354E+01
DAV:  12    -0.516464770867E+03    0.21991E+01   -0.48989E+00  6224   0.527E+00    0.317E+01
DAV:  13    -0.513478620997E+03    0.29861E+01   -0.84120E+00  6408   0.758E+00    0.250E+01
DAV:  14    -0.510108107797E+03    0.33705E+01   -0.79446E+00  6168   0.745E+00    0.185E+01
DAV:  15    -0.508330173528E+03    0.17779E+01   -0.54462E+00  6328   0.630E+00    0.137E+01
DAV:  16    -0.507012962825E+03    0.13172E+01   -0.33508E+00  6096   0.527E+00    0.924E+00
DAV:  17    -0.506526319037E+03    0.48664E+00   -0.23753E+00  6240   0.422E+00    0.686E+00
DAV:  18    -0.506245669190E+03    0.28065E+00   -0.15516E+00  6424   0.330E+00    0.539E+00
DAV:  19    -0.505988986032E+03    0.25668E+00   -0.79378E-01  5928   0.256E+00    0.328E+00
DAV:  20    -0.505863123572E+03    0.12586E+00   -0.78882E-01  5704   0.248E+00    0.150E+00
DAV:  21    -0.505842467004E+03    0.20657E-01   -0.25624E-01  5976   0.145E+00    0.825E-01
DAV:  22    -0.505835496515E+03    0.69705E-02   -0.63093E-02  6248   0.730E-01    0.583E-01
DAV:  23    -0.505834034893E+03    0.14616E-02   -0.19318E-02  6376   0.365E-01    0.370E-01
DAV:  24    -0.505833631404E+03    0.40349E-03   -0.11781E-02  6328   0.279E-01    0.240E-01
DAV:  25    -0.505833239839E+03    0.39157E-03   -0.74329E-03  6272   0.222E-01    0.179E-01
DAV:  26    -0.505832982620E+03    0.25722E-03   -0.27705E-03  6216   0.127E-01    0.121E-01
DAV:  27    -0.505832956747E+03    0.25873E-04   -0.10617E-03  6232   0.838E-02    0.726E-02
DAV:  28    -0.505832923149E+03    0.33598E-04   -0.58186E-04  6208   0.590E-02    0.344E-02
DAV:  29    -0.505832910826E+03    0.12323E-04   -0.15638E-04  6280   0.318E-02    0.269E-02
DAV:  30    -0.505832895471E+03    0.15355E-04   -0.65600E-05  5688   0.198E-02    0.101E-02
DAV:  31    -0.505832893543E+03    0.19283E-05   -0.13300E-05  3272   0.111E-02
   1 F= -.50583289E+03 E0= -.50575507E+03  d E =-.155656E+00
Distance=1.000
 running on   16 total cores
 distrk:  each k-point on    8 cores,    2 groups
 distr:  one band on    4 cores,    2 groups
 using from now: INCAR     
 vasp.5.4.4.18Apr17-6-g9f103f2a35 (build Nov 27 2019 20:08:17) complex          
  
 POSCAR found type information on POSCAR  Ti
 POSCAR found :  1 types and      32 ions
 scaLAPACK will be used

 ----------------------------------------------------------------------------- 
|                                                                             |
|           W    W    AA    RRRRR   N    N  II  N    N   GGGG   !!!           |
|           W    W   A  A   R    R  NN   N  II  NN   N  G    G  !!!           |
|           W    W  A    A  R    R  N N  N  II  N N  N  G       !!!           |
|           W WW W  AAAAAA  RRRRR   N  N N  II  N  N N  G  GGG   !            |
|           WW  WW  A    A  R   R   N   NN  II  N   NN  G    G                |
|           W    W  A    A  R    R  N    N  II  N    N   GGGG   !!!           |
|                                                                             |
|      You have enabled k-point parallelism (KPAR>1).                         |
|      This developmental code was originally  written by Paul Kent at ORNL,  |
|      and carefully double checked in Vienna.                                |
|      GW as well as linear response parallelism added by Martijn Marsman     |
|      and Georg Kresse.                                                      |
|      Carefully verify results versus KPAR=1.                                |
|      Report problems to Paul Kent and Vienna.                               |
|                                                                             |
 ----------------------------------------------------------------------------- 

 LDA part: xc-table for Pade appr. of Perdew
 POSCAR found type information on POSCAR  Ti
 POSCAR found :  1 types and      32 ions
 POSCAR, INCAR and KPOINTS ok, starting setup
 FFT: planning ...
 WAVECAR not read
 entering main loop
       N       E                     dE             d eps       ncg     rms          rms(c)
DAV:   1     0.590418638566E+03    0.59042E+03   -0.36218E+04  1968   0.110E+03
DAV:   2    -0.166026529699E+03   -0.75645E+03   -0.72808E+03  1968   0.243E+02
DAV:   3    -0.277256957010E+03   -0.11123E+03   -0.10465E+03  3072   0.842E+01
DAV:   4    -0.286568450724E+03   -0.93115E+01   -0.86492E+01  3096   0.263E+01
DAV:   5    -0.287121748875E+03   -0.55330E+00   -0.52867E+00  3200   0.536E+00    0.670E+01
DAV:   6    -0.427176629446E+03   -0.14005E+03   -0.23697E+03  3704   0.967E+01    0.846E+01
DAV:   7    -0.249103677674E+03    0.17807E+03   -0.25733E+03  3448   0.155E+02    0.298E+01
DAV:   8    -0.254325868998E+03   -0.52222E+01   -0.50250E+02  3074   0.684E+01    0.317E+01
DAV:   9    -0.236207669617E+03    0.18118E+02   -0.10439E+02  3062   0.311E+01    0.199E+01
DAV:  10    -0.235642410610E+03    0.56526E+00   -0.11200E+01  3216   0.752E+00    0.177E+01
DAV:  11    -0.237208640421E+03   -0.15662E+01   -0.40795E+00  3256   0.487E+00    0.198E+01
DAV:  12    -0.233550506539E+03    0.36581E+01   -0.66545E+00  2888   0.964E+00    0.130E+01
DAV:  13    -0.230652285498E+03    0.28982E+01   -0.76839E+00  2954   0.100E+01    0.637E+00
DAV:  14    -0.230266066342E+03    0.38622E+00   -0.21845E+00  3214   0.375E+00    0.439E+00
DAV:  15    -0.230306999042E+03   -0.40933E-01   -0.10992E+00  2952   0.360E+00    0.481E+00
DAV:  16    -0.230025068091E+03    0.28193E+00   -0.26007E+00  3060   0.415E+00    0.182E+00
DAV:  17    -0.230022418330E+03    0.26498E-02   -0.15168E-01  3040   0.120E+00    0.120E+00
DAV:  18    -0.230002131217E+03    0.20287E-01   -0.10728E-01  3096   0.912E-01    0.361E-01
DAV:  19    -0.230003319111E+03   -0.11879E-02   -0.30052E-02  3312   0.414E-01    0.238E-01
DAV:  20    -0.230005425317E+03   -0.21062E-02   -0.15737E-02  2944   0.440E-01    0.220E-01
DAV:  21    -0.230006715988E+03   -0.12907E-02   -0.66876E-03  2888   0.270E-01    0.131E-01
DAV:  22    -0.230008250682E+03   -0.15347E-02   -0.30584E-03  2896   0.149E-01    0.736E-02
DAV:  23    -0.230008974924E+03   -0.72424E-03   -0.35680E-04  2536   0.565E-02    0.615E-02
DAV:  24    -0.230009065013E+03   -0.90089E-04   -0.22563E-04  2976   0.455E-02    0.246E-02
DAV:  25    -0.230009099416E+03   -0.34403E-04   -0.13133E-04  2904   0.340E-02    0.145E-02
DAV:  26    -0.230009100356E+03   -0.94043E-06   -0.12455E-05  1936   0.113E-02
   1 F= -.23000910E+03 E0= -.22995128E+03  d E =-.115648E+00
 running on   16 total cores
 distrk:  each k-point on    8 cores,    2 groups
 distr:  one band on    4 cores,    2 groups
 using from now: INCAR     
 vasp.5.4.4.18Apr17-6-g9f103f2a35 (build Nov 27 2019 20:08:17) complex          
  
 POSCAR found type information on POSCAR  Ti
 POSCAR found :  1 types and      36 ions
 scaLAPACK will be used

 ----------------------------------------------------------------------------- 
|                                                                             |
|           W    W    AA    RRRRR   N    N  II  N    N   GGGG   !!!           |
|           W    W   A  A   R    R  NN   N  II  NN   N  G    G  !!!           |
|           W    W  A    A  R    R  N N  N  II  N N  N  G       !!!           |
|           W WW W  AAAAAA  RRRRR   N  N N  II  N  N N  G  GGG   !            |
|           WW  WW  A    A  R   R   N   NN  II  N   NN  G    G                |
|           W    W  A    A  R    R  N    N  II  N    N   GGGG   !!!           |
|                                                                             |
|      You have enabled k-point parallelism (KPAR>1).                         |
|      This developmental code was originally  written by Paul Kent at ORNL,  |
|      and carefully double checked in Vienna.                                |
|      GW as well as linear response parallelism added by Martijn Marsman     |
|      and Georg Kresse.                                                      |
|      Carefully verify results versus KPAR=1.                                |
|      Report problems to Paul Kent and Vienna.                               |
|                                                                             |
 ----------------------------------------------------------------------------- 

 LDA part: xc-table for Pade appr. of Perdew
 POSCAR found type information on POSCAR  Ti
 POSCAR found :  1 types and      36 ions
 POSCAR, INCAR and KPOINTS ok, starting setup
 FFT: planning ...
 WAVECAR not read
 WARNING: random wavefunctions but no delay for mixing, default for NELMDL
 entering main loop
       N       E                     dE             d eps       ncg     rms          rms(c)
DAV:   1     0.734637514360E+03    0.73464E+03   -0.41817E+04  2208   0.113E+03
DAV:   2    -0.191265124641E+03   -0.92590E+03   -0.88917E+03  2208   0.254E+02
DAV:   3    -0.324743180551E+03   -0.13348E+03   -0.12303E+03  3192   0.918E+01
DAV:   4    -0.334222579839E+03   -0.94794E+01   -0.87386E+01  3224   0.292E+01
DAV:   5    -0.334743011313E+03   -0.52043E+00   -0.49682E+00  3544   0.548E+00    0.824E+01
DAV:   6    -0.537829670077E+03   -0.20309E+03   -0.29531E+03  4160   0.959E+01    0.110E+02
DAV:   7    -0.291437256895E+03    0.24639E+03   -0.44610E+03  4084   0.165E+02    0.367E+01
DAV:   8    -0.280451384457E+03    0.10986E+02   -0.48926E+02  3180   0.762E+01    0.369E+01
DAV:   9    -0.275677765442E+03    0.47736E+01   -0.35831E+01  3696   0.135E+01    0.299E+01
DAV:  10    -0.278753115109E+03   -0.30753E+01   -0.40885E+00  3504   0.500E+00    0.332E+01
DAV:  11    -0.263911537628E+03    0.14842E+02   -0.38414E+01  3188   0.213E+01    0.941E+00
DAV:  12    -0.263422097112E+03    0.48944E+00   -0.21323E+00  3544   0.445E+00    0.758E+00
DAV:  13    -0.262603130646E+03    0.81897E+00   -0.20468E+00  2872   0.525E+00    0.371E+00
DAV:  14    -0.262449245571E+03    0.15389E+00   -0.91329E-01  3240   0.308E+00    0.180E+00
DAV:  15    -0.262458034198E+03   -0.87886E-02   -0.41160E-02  3144   0.558E-01    0.134E+00
DAV:  16    -0.262486862843E+03   -0.28829E-01   -0.57664E-01  3464   0.202E+00    0.170E+00
DAV:  17    -0.262449531502E+03    0.37331E-01   -0.14588E-01  3272   0.120E+00    0.545E-01
DAV:  18    -0.262454381878E+03   -0.48504E-02   -0.11594E-01  3128   0.116E+00    0.622E-01
DAV:  19    -0.262460950534E+03   -0.65687E-02   -0.77160E-03  2824   0.217E-01    0.596E-01
DAV:  20    -0.262456906018E+03    0.40445E-02   -0.21613E-02  3128   0.494E-01    0.119E-01
DAV:  21    -0.262458474943E+03   -0.15689E-02   -0.20074E-03  2648   0.153E-01    0.442E-02
DAV:  22    -0.262458848063E+03   -0.37312E-03   -0.24579E-04  2696   0.425E-02    0.217E-02
DAV:  23    -0.262458928677E+03   -0.80614E-04   -0.50756E-05  2656   0.214E-02    0.135E-02
DAV:  24    -0.262458936245E+03   -0.75673E-05   -0.13117E-05  1968   0.131E-02    0.431E-03
DAV:  25    -0.262458936757E+03   -0.51245E-06   -0.51256E-06  1720   0.679E-03
   1 F= -.26245894E+03 E0= -.26240648E+03  d E =-.104909E+00
 running on   16 total cores
 distrk:  each k-point on    8 cores,    2 groups
 distr:  one band on    4 cores,    2 groups
 using from now: INCAR     
 vasp.5.4.4.18Apr17-6-g9f103f2a35 (build Nov 27 2019 20:08:17) complex          
  
 POSCAR found type information on POSCAR  Ti
 POSCAR found :  1 types and      68 ions
 scaLAPACK will be used

 ----------------------------------------------------------------------------- 
|                                                                             |
|           W    W    AA    RRRRR   N    N  II  N    N   GGGG   !!!           |
|           W    W   A  A   R    R  NN   N  II  NN   N  G    G  !!!           |
|           W    W  A    A  R    R  N N  N  II  N N  N  G       !!!           |
|           W WW W  AAAAAA  RRRRR   N  N N  II  N  N N  G  GGG   !            |
|           WW  WW  A    A  R   R   N   NN  II  N   NN  G    G                |
|           W    W  A    A  R    R  N    N  II  N    N   GGGG   !!!           |
|                                                                             |
|      You have enabled k-point parallelism (KPAR>1).                         |
|      This developmental code was originally  written by Paul Kent at ORNL,  |
|      and carefully double checked in Vienna.                                |
|      GW as well as linear response parallelism added by Martijn Marsman     |
|      and Georg Kresse.                                                      |
|      Carefully verify results versus KPAR=1.                                |
|      Report problems to Paul Kent and Vienna.                               |
|                                                                             |
 ----------------------------------------------------------------------------- 

 LDA part: xc-table for Pade appr. of Perdew
 POSCAR found type information on POSCAR  Ti
 POSCAR found :  1 types and      68 ions
 POSCAR, INCAR and KPOINTS ok, starting setup
 FFT: planning ...
 WAVECAR not read
 WARNING: random wavefunctions but no delay for mixing, default for NELMDL
 entering main loop
       N       E                     dE             d eps       ncg     rms          rms(c)
DAV:   1     0.120787857462E+04    0.12079E+04   -0.78279E+04  4128   0.124E+03
DAV:   2    -0.344768041621E+03   -0.15526E+04   -0.15064E+04  4128   0.278E+02
DAV:   3    -0.569186792172E+03   -0.22442E+03   -0.20788E+03  5960   0.981E+01
DAV:   4    -0.587753604132E+03   -0.18567E+02   -0.17310E+02  6056   0.287E+01
DAV:   5    -0.588561855284E+03   -0.80825E+00   -0.77956E+00  5920   0.481E+00    0.107E+02
DAV:   6    -0.136941579933E+04   -0.78085E+03   -0.78858E+03  8176   0.162E+02    0.132E+02
DAV:   7    -0.608004293093E+03    0.76141E+03   -0.91125E+03  7568   0.162E+02    0.658E+01
DAV:   8    -0.548379558593E+03    0.59625E+02   -0.20496E+03  7160   0.126E+02    0.576E+01
DAV:   9    -0.571472550437E+03   -0.23093E+02   -0.83232E+02  7392   0.828E+01    0.515E+01
DAV:  10    -0.526887475425E+03    0.44585E+02   -0.29671E+02  6968   0.466E+01    0.401E+01
DAV:  11    -0.521059008647E+03    0.58285E+01   -0.53834E+01  6584   0.169E+01    0.350E+01
DAV:  12    -0.518665256216E+03    0.23938E+01   -0.46163E+00  6288   0.497E+00    0.315E+01
DAV:  13    -0.515422596529E+03    0.32427E+01   -0.58009E+00  6256   0.638E+00    0.250E+01
DAV:  14    -0.511897523838E+03    0.35251E+01   -0.10183E+01  6336   0.845E+00    0.181E+01
DAV:  15    -0.509699857361E+03    0.21977E+01   -0.48213E+00  5952   0.616E+00    0.124E+01
DAV:  16    -0.508840574442E+03    0.85928E+00   -0.33040E+00  6296   0.491E+00    0.945E+00
DAV:  17    -0.508158389653E+03    0.68218E+00   -0.20537E+00  6184   0.396E+00    0.646E+00
DAV:  18    -0.507732371866E+03    0.42602E+00   -0.21819E+00  6296   0.397E+00    0.367E+00
DAV:  19    -0.507578466452E+03    0.15391E+00   -0.11635E+00  6224   0.306E+00    0.180E+00
DAV:  20    -0.507547328859E+03    0.31138E-01   -0.43550E-01  6096   0.183E+00    0.988E-01
DAV:  21    -0.507540777778E+03    0.65511E-02   -0.15684E-01  6096   0.110E+00    0.914E-01
DAV:  22    -0.507538362281E+03    0.24155E-02   -0.45097E-02  6240   0.605E-01    0.789E-01
DAV:  23    -0.507536958592E+03    0.14037E-02   -0.33579E-02  6296   0.469E-01    0.586E-01
DAV:  24    -0.507535550690E+03    0.14079E-02   -0.29486E-02  6160   0.460E-01    0.289E-01
DAV:  25    -0.507534293787E+03    0.12569E-02   -0.80924E-03  6144   0.256E-01    0.141E-01
DAV:  26    -0.507534071517E+03    0.22227E-03   -0.20183E-03  6136   0.116E-01    0.901E-02
DAV:  27    -0.507534064444E+03    0.70729E-05   -0.71840E-04  6216   0.737E-02    0.766E-02
DAV:  28    -0.507534061563E+03    0.28810E-05   -0.52425E-04  6168   0.578E-02    0.470E-02
DAV:  29    -0.507534032318E+03    0.29245E-04   -0.14883E-04  6176   0.348E-02    0.280E-02
DAV:  30    -0.507534018484E+03    0.13834E-04   -0.12504E-04  6088   0.290E-02    0.200E-02
DAV:  31    -0.507534016441E+03    0.20430E-05   -0.39291E-05  5064   0.174E-02
   1 F= -.50753402E+03 E0= -.50745488E+03  d E =-.158272E+00
Distance=1.500
 running on   16 total cores
 distrk:  each k-point on    8 cores,    2 groups
 distr:  one band on    4 cores,    2 groups
 using from now: INCAR     
 vasp.5.4.4.18Apr17-6-g9f103f2a35 (build Nov 27 2019 20:08:17) complex          
  
 POSCAR found type information on POSCAR  Ti
 POSCAR found :  1 types and      32 ions
 scaLAPACK will be used

 ----------------------------------------------------------------------------- 
|                                                                             |
|           W    W    AA    RRRRR   N    N  II  N    N   GGGG   !!!           |
|           W    W   A  A   R    R  NN   N  II  NN   N  G    G  !!!           |
|           W    W  A    A  R    R  N N  N  II  N N  N  G       !!!           |
|           W WW W  AAAAAA  RRRRR   N  N N  II  N  N N  G  GGG   !            |
|           WW  WW  A    A  R   R   N   NN  II  N   NN  G    G                |
|           W    W  A    A  R    R  N    N  II  N    N   GGGG   !!!           |
|                                                                             |
|      You have enabled k-point parallelism (KPAR>1).                         |
|      This developmental code was originally  written by Paul Kent at ORNL,  |
|      and carefully double checked in Vienna.                                |
|      GW as well as linear response parallelism added by Martijn Marsman     |
|      and Georg Kresse.                                                      |
|      Carefully verify results versus KPAR=1.                                |
|      Report problems to Paul Kent and Vienna.                               |
|                                                                             |
 ----------------------------------------------------------------------------- 

 LDA part: xc-table for Pade appr. of Perdew
 POSCAR found type information on POSCAR  Ti
 POSCAR found :  1 types and      32 ions
 POSCAR, INCAR and KPOINTS ok, starting setup
 FFT: planning ...
 WAVECAR not read
 entering main loop
       N       E                     dE             d eps       ncg     rms          rms(c)
DAV:   1     0.590520435606E+03    0.59052E+03   -0.36193E+04  1968   0.110E+03
DAV:   2    -0.165737339471E+03   -0.75626E+03   -0.72855E+03  1968   0.243E+02
DAV:   3    -0.277298087813E+03   -0.11156E+03   -0.10520E+03  3072   0.844E+01
DAV:   4    -0.286558765983E+03   -0.92607E+01   -0.85958E+01  3096   0.262E+01
DAV:   5    -0.287116586482E+03   -0.55782E+00   -0.53252E+00  3168   0.530E+00    0.670E+01
DAV:   6    -0.425743435412E+03   -0.13863E+03   -0.23470E+03  3672   0.966E+01    0.842E+01
DAV:   7    -0.248710148514E+03    0.17703E+03   -0.25529E+03  3424   0.155E+02    0.295E+01
DAV:   8    -0.253843352285E+03   -0.51332E+01   -0.49622E+02  3026   0.676E+01    0.314E+01
DAV:   9    -0.236139507226E+03    0.17704E+02   -0.10212E+02  3012   0.306E+01    0.198E+01
DAV:  10    -0.235624986412E+03    0.51452E+00   -0.11170E+01  3232   0.739E+00    0.177E+01
DAV:  11    -0.237258657702E+03   -0.16337E+01   -0.44661E+00  3248   0.513E+00    0.198E+01
DAV:  12    -0.233866494583E+03    0.33922E+01   -0.57851E+00  2912   0.886E+00    0.136E+01
DAV:  13    -0.230645337061E+03    0.32212E+01   -0.85891E+00  2906   0.107E+01    0.629E+00
DAV:  14    -0.230278888277E+03    0.36645E+00   -0.21712E+00  3256   0.369E+00    0.443E+00
DAV:  15    -0.230289096594E+03   -0.10208E-01   -0.12825E+00  2872   0.404E+00    0.472E+00
DAV:  16    -0.230023487159E+03    0.26561E+00   -0.23641E+00  3094   0.402E+00    0.173E+00
DAV:  17    -0.230019018472E+03    0.44687E-02   -0.14106E-01  3024   0.119E+00    0.108E+00
DAV:  18    -0.230002172075E+03    0.16846E-01   -0.98312E-02  3144   0.887E-01    0.359E-01
DAV:  19    -0.230003272541E+03   -0.11005E-02   -0.23694E-02  3304   0.363E-01    0.231E-01
DAV:  20    -0.230005283404E+03   -0.20109E-02   -0.14734E-02  2936   0.432E-01    0.224E-01
DAV:  21    -0.230006530977E+03   -0.12476E-02   -0.72353E-03  2872   0.279E-01    0.144E-01
DAV:  22    -0.230008043945E+03   -0.15130E-02   -0.34148E-03  2880   0.159E-01    0.715E-02
DAV:  23    -0.230008825943E+03   -0.78200E-03   -0.39086E-04  2512   0.636E-02    0.606E-02
DAV:  24    -0.230008971878E+03   -0.14593E-03   -0.28180E-04  2960   0.510E-02    0.200E-02
DAV:  25    -0.230009008522E+03   -0.36645E-04   -0.82541E-05  2712   0.288E-02    0.104E-02
DAV:  26    -0.230009011732E+03   -0.32095E-05   -0.11727E-05  1920   0.914E-03
   1 F= -.23000901E+03 E0= -.22995118E+03  d E =-.115656E+00
 running on   16 total cores
 distrk:  each k-point on    8 cores,    2 groups
 distr:  one band on    4 cores,    2 groups
 using from now: INCAR     
 vasp.5.4.4.18Apr17-6-g9f103f2a35 (build Nov 27 2019 20:08:17) complex          
  
 POSCAR found type information on POSCAR  Ti
 POSCAR found :  1 types and      36 ions
 scaLAPACK will be used

 ----------------------------------------------------------------------------- 
|                                                                             |
|           W    W    AA    RRRRR   N    N  II  N    N   GGGG   !!!           |
|           W    W   A  A   R    R  NN   N  II  NN   N  G    G  !!!           |
|           W    W  A    A  R    R  N N  N  II  N N  N  G       !!!           |
|           W WW W  AAAAAA  RRRRR   N  N N  II  N  N N  G  GGG   !            |
|           WW  WW  A    A  R   R   N   NN  II  N   NN  G    G                |
|           W    W  A    A  R    R  N    N  II  N    N   GGGG   !!!           |
|                                                                             |
|      You have enabled k-point parallelism (KPAR>1).                         |
|      This developmental code was originally  written by Paul Kent at ORNL,  |
|      and carefully double checked in Vienna.                                |
|      GW as well as linear response parallelism added by Martijn Marsman     |
|      and Georg Kresse.                                                      |
|      Carefully verify results versus KPAR=1.                                |
|      Report problems to Paul Kent and Vienna.                               |
|                                                                             |
 ----------------------------------------------------------------------------- 

 LDA part: xc-table for Pade appr. of Perdew
 POSCAR found type information on POSCAR  Ti
 POSCAR found :  1 types and      36 ions
 POSCAR, INCAR and KPOINTS ok, starting setup
 FFT: planning ...
 WAVECAR not read
 WARNING: random wavefunctions but no delay for mixing, default for NELMDL
 entering main loop
       N       E                     dE             d eps       ncg     rms          rms(c)
DAV:   1     0.735125987671E+03    0.73513E+03   -0.41785E+04  2208   0.113E+03
DAV:   2    -0.191084316431E+03   -0.92621E+03   -0.89039E+03  2208   0.253E+02
DAV:   3    -0.325003487033E+03   -0.13392E+03   -0.12360E+03  3224   0.918E+01
DAV:   4    -0.334272505864E+03   -0.92690E+01   -0.85413E+01  3216   0.290E+01
DAV:   5    -0.334746882510E+03   -0.47438E+00   -0.45559E+00  3560   0.531E+00    0.825E+01
DAV:   6    -0.537490774415E+03   -0.20274E+03   -0.29369E+03  4180   0.958E+01    0.110E+02
DAV:   7    -0.292076221110E+03    0.24541E+03   -0.44577E+03  4064   0.165E+02    0.369E+01
DAV:   8    -0.280775167446E+03    0.11301E+02   -0.49304E+02  3192   0.760E+01    0.368E+01
DAV:   9    -0.275881806703E+03    0.48934E+01   -0.33926E+01  3672   0.135E+01    0.301E+01
DAV:  10    -0.278698945221E+03   -0.28171E+01   -0.39248E+00  3532   0.463E+00    0.331E+01
DAV:  11    -0.264517572071E+03    0.14181E+02   -0.32909E+01  3188   0.198E+01    0.111E+01
DAV:  12    -0.263727257074E+03    0.79031E+00   -0.23379E+00  3560   0.476E+00    0.863E+00
DAV:  13    -0.262643529876E+03    0.10837E+01   -0.26447E+00  2924   0.585E+00    0.389E+00
DAV:  14    -0.262457718450E+03    0.18581E+00   -0.89001E-01  3192   0.329E+00    0.185E+00
DAV:  15    -0.262447800649E+03    0.99178E-02   -0.20340E-01  3496   0.137E+00    0.125E+00
DAV:  16    -0.262457825738E+03   -0.10025E-01   -0.58506E-02  3392   0.748E-01    0.960E-01
DAV:  17    -0.262457057685E+03    0.76805E-03   -0.14890E-01  3432   0.983E-01    0.827E-01
DAV:  18    -0.262455163138E+03    0.18945E-02   -0.18046E-01  3104   0.141E+00    0.662E-01
DAV:  19    -0.262456289185E+03   -0.11260E-02   -0.74982E-03  2656   0.249E-01    0.449E-01
DAV:  20    -0.262456821020E+03   -0.53184E-03   -0.97737E-03  2528   0.368E-01    0.928E-02
DAV:  21    -0.262458325345E+03   -0.15043E-02   -0.11935E-03  2760   0.995E-02    0.615E-02
DAV:  22    -0.262458711121E+03   -0.38578E-03   -0.35595E-04  2592   0.604E-02    0.273E-02
DAV:  23    -0.262458840907E+03   -0.12979E-03   -0.41251E-04  3216   0.631E-02    0.337E-02
DAV:  24    -0.262458829929E+03    0.10978E-04   -0.96095E-05  3260   0.301E-02    0.453E-03
DAV:  25    -0.262458832354E+03   -0.24248E-05   -0.71379E-06  1736   0.106E-02
   1 F= -.26245883E+03 E0= -.26240637E+03  d E =-.104923E+00
 running on   16 total cores
 distrk:  each k-point on    8 cores,    2 groups
 distr:  one band on    4 cores,    2 groups
 using from now: INCAR     
 vasp.5.4.4.18Apr17-6-g9f103f2a35 (build Nov 27 2019 20:08:17) complex          
  
 POSCAR found type information on POSCAR  Ti
 POSCAR found :  1 types and      68 ions
 scaLAPACK will be used

 ----------------------------------------------------------------------------- 
|                                                                             |
|           W    W    AA    RRRRR   N    N  II  N    N   GGGG   !!!           |
|           W    W   A  A   R    R  NN   N  II  NN   N  G    G  !!!           |
|           W    W  A    A  R    R  N N  N  II  N N  N  G       !!!           |
|           W WW W  AAAAAA  RRRRR   N  N N  II  N  N N  G  GGG   !            |
|           WW  WW  A    A  R   R   N   NN  II  N   NN  G    G                |
|           W    W  A    A  R    R  N    N  II  N    N   GGGG   !!!           |
|                                                                             |
|      You have enabled k-point parallelism (KPAR>1).                         |
|      This developmental code was originally  written by Paul Kent at ORNL,  |
|      and carefully double checked in Vienna.                                |
|      GW as well as linear response parallelism added by Martijn Marsman     |
|      and Georg Kresse.                                                      |
|      Carefully verify results versus KPAR=1.                                |
|      Report problems to Paul Kent and Vienna.                               |
|                                                                             |
 ----------------------------------------------------------------------------- 

 LDA part: xc-table for Pade appr. of Perdew
 POSCAR found type information on POSCAR  Ti
 POSCAR found :  1 types and      68 ions
 POSCAR, INCAR and KPOINTS ok, starting setup
 FFT: planning ...
 WAVECAR not read
 WARNING: random wavefunctions but no delay for mixing, default for NELMDL
 entering main loop
       N       E                     dE             d eps       ncg     rms          rms(c)
DAV:   1     0.120099562425E+04    0.12010E+04   -0.78315E+04  4128   0.124E+03
DAV:   2    -0.346311952873E+03   -0.15473E+04   -0.15011E+04  4128   0.278E+02
DAV:   3    -0.570638589564E+03   -0.22433E+03   -0.20793E+03  6016   0.977E+01
DAV:   4    -0.589095506499E+03   -0.18457E+02   -0.17241E+02  6096   0.285E+01
DAV:   5    -0.589897177283E+03   -0.80167E+00   -0.77225E+00  5968   0.475E+00    0.107E+02
DAV:   6    -0.138703977837E+04   -0.79714E+03   -0.80067E+03  8184   0.162E+02    0.130E+02
DAV:   7    -0.611085959835E+03    0.77595E+03   -0.90456E+03  7604   0.160E+02    0.676E+01
DAV:   8    -0.543913435353E+03    0.67173E+02   -0.20667E+03  6840   0.132E+02    0.525E+01
DAV:   9    -0.575009451636E+03   -0.31096E+02   -0.77830E+02  7376   0.780E+01    0.512E+01
DAV:  10    -0.529755311318E+03    0.45254E+02   -0.28376E+02  7064   0.456E+01    0.403E+01
DAV:  11    -0.524034954678E+03    0.57204E+01   -0.56606E+01  6656   0.169E+01    0.358E+01
DAV:  12    -0.521186819192E+03    0.28481E+01   -0.58045E+00  6480   0.549E+00    0.322E+01
DAV:  13    -0.518123410989E+03    0.30634E+01   -0.31996E+00  6112   0.494E+00    0.271E+01
DAV:  14    -0.513362903625E+03    0.47605E+01   -0.12762E+01  6408   0.931E+00    0.175E+01
DAV:  15    -0.511046397804E+03    0.23165E+01   -0.43675E+00  5944   0.584E+00    0.121E+01
DAV:  16    -0.510370738468E+03    0.67566E+00   -0.25677E+00  6312   0.423E+00    0.984E+00
DAV:  17    -0.509448816419E+03    0.92192E+00   -0.27210E+00  6040   0.453E+00    0.621E+00
DAV:  18    -0.509012652994E+03    0.43616E+00   -0.29726E+00  6328   0.457E+00    0.320E+00
DAV:  19    -0.508881256595E+03    0.13140E+00   -0.84054E-01  6288   0.262E+00    0.159E+00
DAV:  20    -0.508861073158E+03    0.20183E-01   -0.20921E-01  6368   0.121E+00    0.103E+00
DAV:  21    -0.508879933063E+03   -0.18860E-01   -0.16730E-01  6008   0.111E+00    0.155E+00
DAV:  22    -0.508880006539E+03   -0.73476E-04   -0.68293E-02  6208   0.745E-01    0.162E+00
DAV:  23    -0.508859086713E+03    0.20920E-01   -0.97240E-02  5992   0.845E-01    0.746E-01
DAV:  24    -0.508856447986E+03    0.26387E-02   -0.35009E-02  5704   0.542E-01    0.343E-01
DAV:  25    -0.508855255511E+03    0.11925E-02   -0.11278E-02  5968   0.309E-01    0.242E-01
DAV:  26    -0.508855181673E+03    0.73838E-04   -0.25564E-03  6072   0.139E-01    0.199E-01
DAV:  27    -0.508854888709E+03    0.29296E-03   -0.13181E-03  6336   0.100E-01    0.116E-01
DAV:  28    -0.508854855006E+03    0.33703E-04   -0.55182E-04  5928   0.586E-02    0.640E-02
DAV:  29    -0.508854823289E+03    0.31717E-04   -0.18944E-04  6040   0.423E-02    0.351E-02
DAV:  30    -0.508854814347E+03    0.89418E-05   -0.14393E-04  6176   0.271E-02    0.328E-02
DAV:  31    -0.508854796999E+03    0.17348E-04   -0.89398E-05  6040   0.237E-02    0.172E-02
DAV:  32    -0.508854794493E+03    0.25064E-05   -0.19576E-05  4120   0.124E-02
   1 F= -.50885479E+03 E0= -.50877505E+03  d E =-.159498E+00
Distance=2.000
 running on   16 total cores
 distrk:  each k-point on    8 cores,    2 groups
 distr:  one band on    4 cores,    2 groups
 using from now: INCAR     
 vasp.5.4.4.18Apr17-6-g9f103f2a35 (build Nov 27 2019 20:08:17) complex          
  
 POSCAR found type information on POSCAR  Ti
 POSCAR found :  1 types and      32 ions
 scaLAPACK will be used

 ----------------------------------------------------------------------------- 
|                                                                             |
|           W    W    AA    RRRRR   N    N  II  N    N   GGGG   !!!           |
|           W    W   A  A   R    R  NN   N  II  NN   N  G    G  !!!           |
|           W    W  A    A  R    R  N N  N  II  N N  N  G       !!!           |
|           W WW W  AAAAAA  RRRRR   N  N N  II  N  N N  G  GGG   !            |
|           WW  WW  A    A  R   R   N   NN  II  N   NN  G    G                |
|           W    W  A    A  R    R  N    N  II  N    N   GGGG   !!!           |
|                                                                             |
|      You have enabled k-point parallelism (KPAR>1).                         |
|      This developmental code was originally  written by Paul Kent at ORNL,  |
|      and carefully double checked in Vienna.                                |
|      GW as well as linear response parallelism added by Martijn Marsman     |
|      and Georg Kresse.                                                      |
|      Carefully verify results versus KPAR=1.                                |
|      Report problems to Paul Kent and Vienna.                               |
|                                                                             |
 ----------------------------------------------------------------------------- 

 LDA part: xc-table for Pade appr. of Perdew
 POSCAR found type information on POSCAR  Ti
 POSCAR found :  1 types and      32 ions
 POSCAR, INCAR and KPOINTS ok, starting setup
 FFT: planning ...
 WAVECAR not read
 entering main loop
       N       E                     dE             d eps       ncg     rms          rms(c)
DAV:   1     0.591029643820E+03    0.59103E+03   -0.36163E+04  1968   0.110E+03
DAV:   2    -0.165986506532E+03   -0.75702E+03   -0.72886E+03  1968   0.243E+02
DAV:   3    -0.277366219052E+03   -0.11138E+03   -0.10490E+03  3080   0.842E+01
DAV:   4    -0.286551398933E+03   -0.91852E+01   -0.85421E+01  3040   0.264E+01
DAV:   5    -0.287112439648E+03   -0.56104E+00   -0.53537E+00  3192   0.543E+00    0.669E+01
DAV:   6    -0.425377797265E+03   -0.13827E+03   -0.23415E+03  3680   0.965E+01    0.842E+01
DAV:   7    -0.249156292293E+03    0.17622E+03   -0.25545E+03  3416   0.155E+02    0.297E+01
DAV:   8    -0.254140619328E+03   -0.49843E+01   -0.50208E+02  3060   0.679E+01    0.315E+01
DAV:   9    -0.236174054462E+03    0.17967E+02   -0.10183E+02  3024   0.306E+01    0.198E+01
DAV:  10    -0.235641635733E+03    0.53242E+00   -0.11057E+01  3232   0.738E+00    0.177E+01
DAV:  11    -0.237176692910E+03   -0.15351E+01   -0.41341E+00  3248   0.494E+00    0.197E+01
DAV:  12    -0.234157247152E+03    0.30194E+01   -0.47771E+00  2952   0.799E+00    0.143E+01
DAV:  13    -0.230667035776E+03    0.34902E+01   -0.94719E+00  2880   0.113E+01    0.640E+00
DAV:  14    -0.230288044101E+03    0.37899E+00   -0.23104E+00  3248   0.385E+00    0.448E+00
DAV:  15    -0.230299992140E+03   -0.11948E-01   -0.12853E+00  2864   0.407E+00    0.477E+00
DAV:  16    -0.230026292433E+03    0.27370E+00   -0.23792E+00  3096   0.400E+00    0.180E+00
DAV:  17    -0.230021390435E+03    0.49020E-02   -0.14305E-01  3000   0.122E+00    0.113E+00
DAV:  18    -0.230002765751E+03    0.18625E-01   -0.10779E-01  3152   0.927E-01    0.398E-01
DAV:  19    -0.230003246182E+03   -0.48043E-03   -0.24134E-02  3288   0.374E-01    0.243E-01
DAV:  20    -0.230005234675E+03   -0.19885E-02   -0.15601E-02  2912   0.453E-01    0.235E-01
DAV:  21    -0.230006271114E+03   -0.10364E-02   -0.70039E-03  2800   0.280E-01    0.145E-01
DAV:  22    -0.230007755563E+03   -0.14844E-02   -0.33417E-03  2880   0.160E-01    0.802E-02
DAV:  23    -0.230008704044E+03   -0.94848E-03   -0.47472E-04  2392   0.734E-02    0.665E-02
DAV:  24    -0.230008881698E+03   -0.17765E-03   -0.31086E-04  2984   0.523E-02    0.204E-02
DAV:  25    -0.230008946089E+03   -0.64391E-04   -0.97905E-05  2776   0.304E-02    0.113E-02
DAV:  26    -0.230008950731E+03   -0.46427E-05   -0.14104E-05  1960   0.103E-02
   1 F= -.23000895E+03 E0= -.22995112E+03  d E =-.115653E+00
 running on   16 total cores
 distrk:  each k-point on    8 cores,    2 groups
 distr:  one band on    4 cores,    2 groups
 using from now: INCAR     
 vasp.5.4.4.18Apr17-6-g9f103f2a35 (build Nov 27 2019 20:08:17) complex          
  
 POSCAR found type information on POSCAR  Ti
 POSCAR found :  1 types and      36 ions
 scaLAPACK will be used

 ----------------------------------------------------------------------------- 
|                                                                             |
|           W    W    AA    RRRRR   N    N  II  N    N   GGGG   !!!           |
|           W    W   A  A   R    R  NN   N  II  NN   N  G    G  !!!           |
|           W    W  A    A  R    R  N N  N  II  N N  N  G       !!!           |
|           W WW W  AAAAAA  RRRRR   N  N N  II  N  N N  G  GGG   !            |
|           WW  WW  A    A  R   R   N   NN  II  N   NN  G    G                |
|           W    W  A    A  R    R  N    N  II  N    N   GGGG   !!!           |
|                                                                             |
|      You have enabled k-point parallelism (KPAR>1).                         |
|      This developmental code was originally  written by Paul Kent at ORNL,  |
|      and carefully double checked in Vienna.                                |
|      GW as well as linear response parallelism added by Martijn Marsman     |
|      and Georg Kresse.                                                      |
|      Carefully verify results versus KPAR=1.                                |
|      Report problems to Paul Kent and Vienna.                               |
|                                                                             |
 ----------------------------------------------------------------------------- 

 LDA part: xc-table for Pade appr. of Perdew
 POSCAR found type information on POSCAR  Ti
 POSCAR found :  1 types and      36 ions
 POSCAR, INCAR and KPOINTS ok, starting setup
 FFT: planning ...
 WAVECAR not read
 WARNING: random wavefunctions but no delay for mixing, default for NELMDL
 entering main loop
       N       E                     dE             d eps       ncg     rms          rms(c)
DAV:   1     0.735512961480E+03    0.73551E+03   -0.41900E+04  2208   0.113E+03
DAV:   2    -0.191374074024E+03   -0.92689E+03   -0.89066E+03  2208   0.253E+02
DAV:   3    -0.325131520305E+03   -0.13376E+03   -0.12327E+03  3224   0.919E+01
DAV:   4    -0.334240022504E+03   -0.91085E+01   -0.84211E+01  3160   0.290E+01
DAV:   5    -0.334745531957E+03   -0.50551E+00   -0.48115E+00  3584   0.541E+00    0.825E+01
DAV:   6    -0.537432900935E+03   -0.20269E+03   -0.29344E+03  4152   0.958E+01    0.110E+02
DAV:   7    -0.293090950562E+03    0.24434E+03   -0.44943E+03  4096   0.165E+02    0.370E+01
DAV:   8    -0.280698445079E+03    0.12393E+02   -0.48525E+02  3152   0.763E+01    0.369E+01
DAV:   9    -0.276209076904E+03    0.44894E+01   -0.32402E+01  3680   0.131E+01    0.304E+01
DAV:  10    -0.280003926056E+03   -0.37948E+01   -0.36400E+00  3292   0.509E+00    0.345E+01
DAV:  11    -0.265517228324E+03    0.14487E+02   -0.31206E+01  3108   0.198E+01    0.140E+01
DAV:  12    -0.263116896046E+03    0.24003E+01   -0.84858E+00  3512   0.890E+00    0.656E+00
DAV:  13    -0.262874395179E+03    0.24250E+00   -0.51764E-01  3292   0.232E+00    0.548E+00
DAV:  14    -0.262569401463E+03    0.30499E+00   -0.11435E+00  2688   0.413E+00    0.323E+00
DAV:  15    -0.262472776975E+03    0.96624E-01   -0.29323E-01  3448   0.158E+00    0.176E+00
DAV:  16    -0.262465097725E+03    0.76792E-02   -0.37186E-02  2960   0.683E-01    0.137E+00
DAV:  17    -0.262446247237E+03    0.18850E-01   -0.25369E-01  3504   0.132E+00    0.332E-01
DAV:  18    -0.262451031888E+03   -0.47847E-02   -0.40248E-02  3248   0.645E-01    0.363E-01
DAV:  19    -0.262456310726E+03   -0.52788E-02   -0.15841E-02  3408   0.397E-01    0.340E-01
DAV:  20    -0.262457370112E+03   -0.10594E-02   -0.51929E-03  3136   0.235E-01    0.158E-01
DAV:  21    -0.262458034479E+03   -0.66437E-03   -0.24281E-03  2736   0.187E-01    0.564E-02
DAV:  22    -0.262458873249E+03   -0.83877E-03   -0.11577E-03  2832   0.121E-01    0.928E-02
DAV:  23    -0.262458793737E+03    0.79512E-04   -0.66721E-04  3144   0.847E-02    0.274E-02
DAV:  24    -0.262458795445E+03   -0.17074E-05   -0.18911E-05  2224   0.151E-02
   1 F= -.26245880E+03 E0= -.26240633E+03  d E =-.104921E+00
 running on   16 total cores
 distrk:  each k-point on    8 cores,    2 groups
 distr:  one band on    4 cores,    2 groups
 using from now: INCAR     
 vasp.5.4.4.18Apr17-6-g9f103f2a35 (build Nov 27 2019 20:08:17) complex          
  
 POSCAR found type information on POSCAR  Ti
 POSCAR found :  1 types and      68 ions
 scaLAPACK will be used

 ----------------------------------------------------------------------------- 
|                                                                             |
|           W    W    AA    RRRRR   N    N  II  N    N   GGGG   !!!           |
|           W    W   A  A   R    R  NN   N  II  NN   N  G    G  !!!           |
|           W    W  A    A  R    R  N N  N  II  N N  N  G       !!!           |
|           W WW W  AAAAAA  RRRRR   N  N N  II  N  N N  G  GGG   !            |
|           WW  WW  A    A  R   R   N   NN  II  N   NN  G    G                |
|           W    W  A    A  R    R  N    N  II  N    N   GGGG   !!!           |
|                                                                             |
|      You have enabled k-point parallelism (KPAR>1).                         |
|      This developmental code was originally  written by Paul Kent at ORNL,  |
|      and carefully double checked in Vienna.                                |
|      GW as well as linear response parallelism added by Martijn Marsman     |
|      and Georg Kresse.                                                      |
|      Carefully verify results versus KPAR=1.                                |
|      Report problems to Paul Kent and Vienna.                               |
|                                                                             |
 ----------------------------------------------------------------------------- 

 LDA part: xc-table for Pade appr. of Perdew
 POSCAR found type information on POSCAR  Ti
 POSCAR found :  1 types and      68 ions
 POSCAR, INCAR and KPOINTS ok, starting setup
 FFT: planning ...
 WAVECAR not read
 WARNING: random wavefunctions but no delay for mixing, default for NELMDL
 entering main loop
       N       E                     dE             d eps       ncg     rms          rms(c)
DAV:   1     0.119671078266E+04    0.11967E+04   -0.78204E+04  4128   0.124E+03
DAV:   2    -0.347474001467E+03   -0.15442E+04   -0.14983E+04  4128   0.277E+02
DAV:   3    -0.572036537839E+03   -0.22456E+03   -0.20810E+03  6048   0.974E+01
DAV:   4    -0.590499745668E+03   -0.18463E+02   -0.17238E+02  6136   0.283E+01
DAV:   5    -0.591299596360E+03   -0.79985E+00   -0.77183E+00  5952   0.469E+00    0.107E+02
DAV:   6    -0.139948415159E+04   -0.80818E+03   -0.81021E+03  8148   0.163E+02    0.128E+02
DAV:   7    -0.614596067144E+03    0.78489E+03   -0.89384E+03  7548   0.158E+02    0.697E+01
DAV:   8    -0.541498456620E+03    0.73098E+02   -0.21379E+03  6608   0.137E+02    0.494E+01
DAV:   9    -0.580529315571E+03   -0.39031E+02   -0.79630E+02  7376   0.759E+01    0.517E+01
DAV:  10    -0.532260141754E+03    0.48269E+02   -0.29521E+02  7144   0.462E+01    0.409E+01
DAV:  11    -0.526980775514E+03    0.52794E+01   -0.59537E+01  6712   0.170E+01    0.369E+01
DAV:  12    -0.523875582487E+03    0.31052E+01   -0.61747E+00  6536   0.548E+00    0.334E+01
DAV:  13    -0.520843688748E+03    0.30319E+01   -0.24218E+00  5896   0.431E+00    0.290E+01
DAV:  14    -0.514779860928E+03    0.60638E+01   -0.14490E+01  6336   0.979E+00    0.177E+01
DAV:  15    -0.512362093031E+03    0.24178E+01   -0.37630E+00  6016   0.547E+00    0.126E+01
DAV:  16    -0.511743080724E+03    0.61901E+00   -0.19477E+00  6328   0.367E+00    0.107E+01
DAV:  17    -0.510904518980E+03    0.83856E+00   -0.26762E+00  6280   0.439E+00    0.795E+00
DAV:  18    -0.510047990318E+03    0.85653E+00   -0.36682E+00  6216   0.507E+00    0.355E+00
DAV:  19    -0.509892621010E+03    0.15537E+00   -0.95160E-01  6256   0.272E+00    0.182E+00
DAV:  20    -0.509869759786E+03    0.22861E-01   -0.18663E-01  6408   0.111E+00    0.132E+00
DAV:  21    -0.509934350426E+03   -0.64591E-01   -0.24692E-01  5968   0.135E+00    0.242E+00
DAV:  22    -0.509898848397E+03    0.35502E-01   -0.10683E-01  6184   0.952E-01    0.204E+00
DAV:  23    -0.509860690776E+03    0.38158E-01   -0.20063E-01  5528   0.125E+00    0.720E-01
DAV:  24    -0.509858669307E+03    0.20215E-02   -0.44840E-02  5880   0.629E-01    0.422E-01
DAV:  25    -0.509856873966E+03    0.17953E-02   -0.19095E-02  6024   0.400E-01    0.287E-01
DAV:  26    -0.509856711208E+03    0.16276E-03   -0.41942E-03  6056   0.190E-01    0.266E-01
DAV:  27    -0.509855997800E+03    0.71341E-03   -0.24481E-03  6600   0.137E-01    0.146E-01
DAV:  28    -0.509855969320E+03    0.28480E-04   -0.65242E-04  6016   0.657E-02    0.767E-02
DAV:  29    -0.509855965641E+03    0.36791E-05   -0.29626E-04  6272   0.486E-02    0.552E-02
DAV:  30    -0.509855934358E+03    0.31283E-04   -0.18615E-04  6184   0.314E-02    0.471E-02
DAV:  31    -0.509855906176E+03    0.28182E-04   -0.14027E-04  6216   0.297E-02    0.279E-02
DAV:  32    -0.509855898515E+03    0.76608E-05   -0.42852E-05  5424   0.187E-02    0.128E-02
DAV:  33    -0.509855895389E+03    0.31263E-05   -0.61876E-06  2752   0.836E-03
   1 F= -.50985590E+03 E0= -.50977674E+03  d E =-.158314E+00
Distance=2.500
 running on   16 total cores
 distrk:  each k-point on    8 cores,    2 groups
 distr:  one band on    4 cores,    2 groups
 using from now: INCAR     
 vasp.5.4.4.18Apr17-6-g9f103f2a35 (build Nov 27 2019 20:08:17) complex          
  
 POSCAR found type information on POSCAR  Ti
 POSCAR found :  1 types and      32 ions
 scaLAPACK will be used

 ----------------------------------------------------------------------------- 
|                                                                             |
|           W    W    AA    RRRRR   N    N  II  N    N   GGGG   !!!           |
|           W    W   A  A   R    R  NN   N  II  NN   N  G    G  !!!           |
|           W    W  A    A  R    R  N N  N  II  N N  N  G       !!!           |
|           W WW W  AAAAAA  RRRRR   N  N N  II  N  N N  G  GGG   !            |
|           WW  WW  A    A  R   R   N   NN  II  N   NN  G    G                |
|           W    W  A    A  R    R  N    N  II  N    N   GGGG   !!!           |
|                                                                             |
|      You have enabled k-point parallelism (KPAR>1).                         |
|      This developmental code was originally  written by Paul Kent at ORNL,  |
|      and carefully double checked in Vienna.                                |
|      GW as well as linear response parallelism added by Martijn Marsman     |
|      and Georg Kresse.                                                      |
|      Carefully verify results versus KPAR=1.                                |
|      Report problems to Paul Kent and Vienna.                               |
|                                                                             |
 ----------------------------------------------------------------------------- 

 LDA part: xc-table for Pade appr. of Perdew
 POSCAR found type information on POSCAR  Ti
 POSCAR found :  1 types and      32 ions
 POSCAR, INCAR and KPOINTS ok, starting setup
 FFT: planning ...
 WAVECAR not read
 entering main loop
       N       E                     dE             d eps       ncg     rms          rms(c)
DAV:   1     0.591459535786E+03    0.59146E+03   -0.36112E+04  1968   0.110E+03
DAV:   2    -0.166406196145E+03   -0.75787E+03   -0.72967E+03  1968   0.243E+02
DAV:   3    -0.277604610542E+03   -0.11120E+03   -0.10500E+03  3096   0.843E+01
DAV:   4    -0.286547665529E+03   -0.89431E+01   -0.82943E+01  3072   0.262E+01
DAV:   5    -0.287113352888E+03   -0.56569E+00   -0.53813E+00  3192   0.529E+00    0.670E+01
DAV:   6    -0.425637878615E+03   -0.13852E+03   -0.23488E+03  3680   0.965E+01    0.841E+01
DAV:   7    -0.248846825583E+03    0.17679E+03   -0.25609E+03  3456   0.155E+02    0.296E+01
DAV:   8    -0.253262570882E+03   -0.44157E+01   -0.49160E+02  3022   0.672E+01    0.313E+01
DAV:   9    -0.236136770169E+03    0.17126E+02   -0.99592E+01  3030   0.303E+01    0.197E+01
DAV:  10    -0.235680580221E+03    0.45619E+00   -0.11317E+01  3224   0.736E+00    0.177E+01
DAV:  11    -0.237140871763E+03   -0.14603E+01   -0.40279E+00  3216   0.482E+00    0.197E+01
DAV:  12    -0.233292762207E+03    0.38481E+01   -0.72240E+00  2872   0.101E+01    0.124E+01
DAV:  13    -0.230707611895E+03    0.25852E+01   -0.62639E+00  3006   0.895E+00    0.651E+00
DAV:  14    -0.230287491047E+03    0.42012E+00   -0.22904E+00  3264   0.392E+00    0.454E+00
DAV:  15    -0.230312755240E+03   -0.25264E-01   -0.11084E+00  2888   0.370E+00    0.487E+00
DAV:  16    -0.230022995101E+03    0.28976E+00   -0.24996E+00  3072   0.410E+00    0.171E+00
DAV:  17    -0.230025135018E+03   -0.21399E-02   -0.15217E-01  3016   0.123E+00    0.120E+00
DAV:  18    -0.230003401133E+03    0.21734E-01   -0.11404E-01  3072   0.965E-01    0.389E-01
DAV:  19    -0.230003367690E+03    0.33443E-04   -0.27884E-02  3304   0.418E-01    0.222E-01
DAV:  20    -0.230005515909E+03   -0.21482E-02   -0.13962E-02  2944   0.416E-01    0.229E-01
DAV:  21    -0.230006329690E+03   -0.81378E-03   -0.68259E-03  2784   0.284E-01    0.139E-01
DAV:  22    -0.230007889913E+03   -0.15602E-02   -0.36199E-03  2976   0.161E-01    0.880E-02
DAV:  23    -0.230008794173E+03   -0.90426E-03   -0.46818E-04  2456   0.677E-02    0.577E-02
DAV:  24    -0.230009053951E+03   -0.25978E-03   -0.27305E-04  2952   0.453E-02    0.168E-02
DAV:  25    -0.230009110370E+03   -0.56420E-04   -0.86258E-05  2824   0.255E-02    0.106E-02
DAV:  26    -0.230009113296E+03   -0.29259E-05   -0.11625E-05  1952   0.103E-02
   1 F= -.23000911E+03 E0= -.22995129E+03  d E =-.115653E+00
 running on   16 total cores
 distrk:  each k-point on    8 cores,    2 groups
 distr:  one band on    4 cores,    2 groups
 using from now: INCAR     
 vasp.5.4.4.18Apr17-6-g9f103f2a35 (build Nov 27 2019 20:08:17) complex          
  
 POSCAR found type information on POSCAR  Ti
 POSCAR found :  1 types and      36 ions
 scaLAPACK will be used

 ----------------------------------------------------------------------------- 
|                                                                             |
|           W    W    AA    RRRRR   N    N  II  N    N   GGGG   !!!           |
|           W    W   A  A   R    R  NN   N  II  NN   N  G    G  !!!           |
|           W    W  A    A  R    R  N N  N  II  N N  N  G       !!!           |
|           W WW W  AAAAAA  RRRRR   N  N N  II  N  N N  G  GGG   !            |
|           WW  WW  A    A  R   R   N   NN  II  N   NN  G    G                |
|           W    W  A    A  R    R  N    N  II  N    N   GGGG   !!!           |
|                                                                             |
|      You have enabled k-point parallelism (KPAR>1).                         |
|      This developmental code was originally  written by Paul Kent at ORNL,  |
|      and carefully double checked in Vienna.                                |
|      GW as well as linear response parallelism added by Martijn Marsman     |
|      and Georg Kresse.                                                      |
|      Carefully verify results versus KPAR=1.                                |
|      Report problems to Paul Kent and Vienna.                               |
|                                                                             |
 ----------------------------------------------------------------------------- 

 LDA part: xc-table for Pade appr. of Perdew
 POSCAR found type information on POSCAR  Ti
 POSCAR found :  1 types and      36 ions
 POSCAR, INCAR and KPOINTS ok, starting setup
 FFT: planning ...
 WAVECAR not read
 WARNING: random wavefunctions but no delay for mixing, default for NELMDL
 entering main loop
       N       E                     dE             d eps       ncg     rms          rms(c)
DAV:   1     0.732616362739E+03    0.73262E+03   -0.41709E+04  2208   0.112E+03
DAV:   2    -0.192024655249E+03   -0.92464E+03   -0.88828E+03  2208   0.252E+02
DAV:   3    -0.325148305660E+03   -0.13312E+03   -0.12246E+03  3216   0.914E+01
DAV:   4    -0.334251134599E+03   -0.91028E+01   -0.84053E+01  3184   0.288E+01
DAV:   5    -0.334745022265E+03   -0.49389E+00   -0.47493E+00  3576   0.548E+00    0.825E+01
DAV:   6    -0.536641841695E+03   -0.20190E+03   -0.29257E+03  4160   0.956E+01    0.110E+02
DAV:   7    -0.292435324559E+03    0.24421E+03   -0.44867E+03  4072   0.165E+02    0.371E+01
DAV:   8    -0.280629458331E+03    0.11806E+02   -0.49213E+02  3156   0.764E+01    0.368E+01
DAV:   9    -0.276137287181E+03    0.44922E+01   -0.34812E+01  3656   0.135E+01    0.303E+01
DAV:  10    -0.279894585934E+03   -0.37573E+01   -0.44331E+00  3496   0.541E+00    0.344E+01
DAV:  11    -0.264978719783E+03    0.14916E+02   -0.33356E+01  3176   0.202E+01    0.124E+01
DAV:  12    -0.263239422154E+03    0.17393E+01   -0.56471E+00  3544   0.717E+00    0.683E+00
DAV:  13    -0.262852586467E+03    0.38684E+00   -0.66021E-01  3036   0.292E+00    0.514E+00
DAV:  14    -0.262505232882E+03    0.34735E+00   -0.14573E+00  2780   0.455E+00    0.272E+00
DAV:  15    -0.262469463558E+03    0.35769E-01   -0.14869E-01  3592   0.931E-01    0.156E+00
DAV:  16    -0.262455783494E+03    0.13680E-01   -0.26242E-02  3648   0.461E-01    0.960E-01
DAV:  17    -0.262448806890E+03    0.69766E-02   -0.14421E-01  3496   0.957E-01    0.417E-01
DAV:  18    -0.262459044653E+03   -0.10238E-01   -0.10389E-01  3212   0.107E+00    0.715E-01
DAV:  19    -0.262455611023E+03    0.34336E-02   -0.26606E-02  3288   0.514E-01    0.286E-01
DAV:  20    -0.262456998279E+03   -0.13873E-02   -0.39474E-03  2324   0.243E-01    0.106E-01
DAV:  21    -0.262458232127E+03   -0.12338E-02   -0.17382E-03  3168   0.127E-01    0.750E-02
DAV:  22    -0.262458888905E+03   -0.65678E-03   -0.41540E-04  2624   0.775E-02    0.395E-02
DAV:  23    -0.262458952576E+03   -0.63671E-04   -0.81815E-05  2736   0.311E-02    0.242E-02
DAV:  24    -0.262458957057E+03   -0.44815E-05   -0.59339E-05  3168   0.214E-02    0.737E-03
DAV:  25    -0.262458958501E+03   -0.14437E-05   -0.69550E-06  1744   0.111E-02
   1 F= -.26245896E+03 E0= -.26240650E+03  d E =-.104917E+00
 running on   16 total cores
 distrk:  each k-point on    8 cores,    2 groups
 distr:  one band on    4 cores,    2 groups
 using from now: INCAR     
 vasp.5.4.4.18Apr17-6-g9f103f2a35 (build Nov 27 2019 20:08:17) complex          
  
 POSCAR found type information on POSCAR  Ti
 POSCAR found :  1 types and      68 ions
 scaLAPACK will be used

 ----------------------------------------------------------------------------- 
|                                                                             |
|           W    W    AA    RRRRR   N    N  II  N    N   GGGG   !!!           |
|           W    W   A  A   R    R  NN   N  II  NN   N  G    G  !!!           |
|           W    W  A    A  R    R  N N  N  II  N N  N  G       !!!           |
|           W WW W  AAAAAA  RRRRR   N  N N  II  N  N N  G  GGG   !            |
|           WW  WW  A    A  R   R   N   NN  II  N   NN  G    G                |
|           W    W  A    A  R    R  N    N  II  N    N   GGGG   !!!           |
|                                                                             |
|      You have enabled k-point parallelism (KPAR>1).                         |
|      This developmental code was originally  written by Paul Kent at ORNL,  |
|      and carefully double checked in Vienna.                                |
|      GW as well as linear response parallelism added by Martijn Marsman     |
|      and Georg Kresse.                                                      |
|      Carefully verify results versus KPAR=1.                                |
|      Report problems to Paul Kent and Vienna.                               |
|                                                                             |
 ----------------------------------------------------------------------------- 

 LDA part: xc-table for Pade appr. of Perdew
 POSCAR found type information on POSCAR  Ti
 POSCAR found :  1 types and      68 ions
 POSCAR, INCAR and KPOINTS ok, starting setup
 FFT: planning ...
 WAVECAR not read
 WARNING: random wavefunctions but no delay for mixing, default for NELMDL
 entering main loop
       N       E                     dE             d eps       ncg     rms          rms(c)
DAV:   1     0.119074049155E+04    0.11907E+04   -0.78192E+04  4128   0.124E+03
DAV:   2    -0.349920748192E+03   -0.15407E+04   -0.14951E+04  4128   0.277E+02
DAV:   3    -0.573651946029E+03   -0.22373E+03   -0.20733E+03  6024   0.971E+01
DAV:   4    -0.591976226094E+03   -0.18324E+02   -0.17152E+02  6136   0.283E+01
DAV:   5    -0.592753846765E+03   -0.77762E+00   -0.75141E+00  5968   0.465E+00    0.107E+02
DAV:   6    -0.140957760933E+04   -0.81682E+03   -0.81667E+03  8076   0.164E+02    0.126E+02
DAV:   7    -0.620427476211E+03    0.78915E+03   -0.88511E+03  7592   0.156E+02    0.718E+01
DAV:   8    -0.540173631697E+03    0.80254E+02   -0.22441E+03  6608   0.140E+02    0.472E+01
DAV:   9    -0.586083794974E+03   -0.45910E+02   -0.81921E+02  7440   0.744E+01    0.524E+01
DAV:  10    -0.534273368211E+03    0.51810E+02   -0.30599E+02  7248   0.471E+01    0.411E+01
DAV:  11    -0.529279190247E+03    0.49942E+01   -0.60921E+01  6712   0.169E+01    0.375E+01
DAV:  12    -0.526008815492E+03    0.32704E+01   -0.57910E+00  6568   0.504E+00    0.342E+01
DAV:  13    -0.522252868262E+03    0.37559E+01   -0.31591E+00  5976   0.480E+00    0.290E+01
DAV:  14    -0.515345968480E+03    0.69069E+01   -0.17185E+01  6376   0.105E+01    0.168E+01
DAV:  15    -0.513096515658E+03    0.22495E+01   -0.31420E+00  5840   0.505E+00    0.122E+01
DAV:  16    -0.512735956996E+03    0.36056E+00   -0.12755E+00  6392   0.294E+00    0.110E+01
DAV:  17    -0.512148866569E+03    0.58709E+00   -0.18251E+00  6408   0.356E+00    0.951E+00
DAV:  18    -0.510912462144E+03    0.12364E+01   -0.37188E+00  6152   0.511E+00    0.461E+00
DAV:  19    -0.510635945203E+03    0.27652E+00   -0.14381E+00  6088   0.333E+00    0.204E+00
DAV:  20    -0.510627378626E+03    0.85666E-02   -0.28103E-01  6248   0.137E+00    0.181E+00
DAV:  21    -0.510723811773E+03   -0.96433E-01   -0.26792E-01  5968   0.145E+00    0.301E+00
DAV:  22    -0.510665758536E+03    0.58053E-01   -0.11469E-01  6344   0.100E+00    0.254E+00
DAV:  23    -0.510598089720E+03    0.67669E-01   -0.33112E-01  5616   0.159E+00    0.939E-01
DAV:  24    -0.510592947323E+03    0.51424E-02   -0.72905E-02  6000   0.815E-01    0.500E-01
DAV:  25    -0.510590879022E+03    0.20683E-02   -0.20825E-02  6144   0.395E-01    0.314E-01
DAV:  26    -0.510590759764E+03    0.11926E-03   -0.66246E-03  6376   0.217E-01    0.307E-01
DAV:  27    -0.510589625456E+03    0.11343E-02   -0.41271E-03  6752   0.169E-01    0.173E-01
DAV:  28    -0.510589560161E+03    0.65295E-04   -0.13777E-03  6112   0.942E-02    0.835E-02
DAV:  29    -0.510589537766E+03    0.22396E-04   -0.60499E-04  6128   0.686E-02    0.493E-02
DAV:  30    -0.510589501836E+03    0.35930E-04   -0.26148E-04  6096   0.401E-02    0.372E-02
DAV:  31    -0.510589486529E+03    0.15307E-04   -0.13538E-04  6224   0.277E-02    0.258E-02
DAV:  32    -0.510589478640E+03    0.78893E-05   -0.60983E-05  5752   0.212E-02    0.130E-02
DAV:  33    -0.510589474780E+03    0.38599E-05   -0.85370E-06  2952   0.975E-03
   1 F= -.51058947E+03 E0= -.51051105E+03  d E =-.156859E+00
Distance=3.000
 running on   16 total cores
 distrk:  each k-point on    8 cores,    2 groups
 distr:  one band on    4 cores,    2 groups
 using from now: INCAR     
 vasp.5.4.4.18Apr17-6-g9f103f2a35 (build Nov 27 2019 20:08:17) complex          
  
 POSCAR found type information on POSCAR  Ti
 POSCAR found :  1 types and      32 ions
 scaLAPACK will be used

 ----------------------------------------------------------------------------- 
|                                                                             |
|           W    W    AA    RRRRR   N    N  II  N    N   GGGG   !!!           |
|           W    W   A  A   R    R  NN   N  II  NN   N  G    G  !!!           |
|           W    W  A    A  R    R  N N  N  II  N N  N  G       !!!           |
|           W WW W  AAAAAA  RRRRR   N  N N  II  N  N N  G  GGG   !            |
|           WW  WW  A    A  R   R   N   NN  II  N   NN  G    G                |
|           W    W  A    A  R    R  N    N  II  N    N   GGGG   !!!           |
|                                                                             |
|      You have enabled k-point parallelism (KPAR>1).                         |
|      This developmental code was originally  written by Paul Kent at ORNL,  |
|      and carefully double checked in Vienna.                                |
|      GW as well as linear response parallelism added by Martijn Marsman     |
|      and Georg Kresse.                                                      |
|      Carefully verify results versus KPAR=1.                                |
|      Report problems to Paul Kent and Vienna.                               |
|                                                                             |
 ----------------------------------------------------------------------------- 

 LDA part: xc-table for Pade appr. of Perdew
 POSCAR found type information on POSCAR  Ti
 POSCAR found :  1 types and      32 ions
 POSCAR, INCAR and KPOINTS ok, starting setup
 FFT: planning ...
 WAVECAR not read
 entering main loop
       N       E                     dE             d eps       ncg     rms          rms(c)
DAV:   1     0.592636877763E+03    0.59264E+03   -0.36161E+04  1968   0.110E+03
DAV:   2    -0.166180692086E+03   -0.75882E+03   -0.73043E+03  1968   0.243E+02
DAV:   3    -0.277623801997E+03   -0.11144E+03   -0.10533E+03  3104   0.841E+01
DAV:   4    -0.286570489164E+03   -0.89467E+01   -0.83073E+01  3088   0.261E+01
DAV:   5    -0.287118198822E+03   -0.54771E+00   -0.52149E+00  3192   0.527E+00    0.670E+01
DAV:   6    -0.424750067160E+03   -0.13763E+03   -0.23439E+03  3672   0.964E+01    0.843E+01
DAV:   7    -0.249300482023E+03    0.17545E+03   -0.25809E+03  3440   0.156E+02    0.296E+01
DAV:   8    -0.253064650932E+03   -0.37642E+01   -0.48627E+02  3008   0.671E+01    0.313E+01
DAV:   9    -0.236284117207E+03    0.16781E+02   -0.99145E+01  3032   0.303E+01    0.200E+01
DAV:  10    -0.235678112166E+03    0.60601E+00   -0.11268E+01  3240   0.734E+00    0.177E+01
DAV:  11    -0.237346744581E+03   -0.16686E+01   -0.40522E+00  3288   0.507E+00    0.201E+01
DAV:  12    -0.234098289741E+03    0.32485E+01   -0.59344E+00  3008   0.886E+00    0.142E+01
DAV:  13    -0.230617014060E+03    0.34813E+01   -0.94019E+00  2852   0.112E+01    0.620E+00
DAV:  14    -0.230308024166E+03    0.30899E+00   -0.18374E+00  3256   0.337E+00    0.443E+00
DAV:  15    -0.230232911724E+03    0.75112E-01   -0.14498E+00  2740   0.450E+00    0.425E+00
DAV:  16    -0.230016622011E+03    0.21629E+00   -0.17408E+00  3070   0.345E+00    0.148E+00
DAV:  17    -0.230012574970E+03    0.40470E-02   -0.10846E-01  3016   0.101E+00    0.829E-01
DAV:  18    -0.230002983325E+03    0.95916E-02   -0.48644E-02  3200   0.583E-01    0.335E-01
DAV:  19    -0.230003851822E+03   -0.86850E-03   -0.22356E-02  3272   0.409E-01    0.180E-01
DAV:  20    -0.230005499952E+03   -0.16481E-02   -0.73257E-03  2976   0.306E-01    0.202E-01
DAV:  21    -0.230006326302E+03   -0.82635E-03   -0.47524E-03  2504   0.252E-01    0.101E-01
DAV:  22    -0.230008213685E+03   -0.18874E-02   -0.31541E-03  2968   0.155E-01    0.106E-01
DAV:  23    -0.230008733434E+03   -0.51975E-03   -0.53171E-04  2808   0.790E-02    0.474E-02
DAV:  24    -0.230008932723E+03   -0.19929E-03   -0.24485E-04  3144   0.443E-02    0.241E-02
DAV:  25    -0.230008997628E+03   -0.64905E-04   -0.97442E-05  2656   0.323E-02    0.101E-02
DAV:  26    -0.230009001066E+03   -0.34377E-05   -0.11903E-05  1872   0.101E-02
   1 F= -.23000900E+03 E0= -.22995118E+03  d E =-.115649E+00
 running on   16 total cores
 distrk:  each k-point on    8 cores,    2 groups
 distr:  one band on    4 cores,    2 groups
 using from now: INCAR     
 vasp.5.4.4.18Apr17-6-g9f103f2a35 (build Nov 27 2019 20:08:17) complex          
  
 POSCAR found type information on POSCAR  Ti
 POSCAR found :  1 types and      36 ions
 scaLAPACK will be used

 ----------------------------------------------------------------------------- 
|                                                                             |
|           W    W    AA    RRRRR   N    N  II  N    N   GGGG   !!!           |
|           W    W   A  A   R    R  NN   N  II  NN   N  G    G  !!!           |
|           W    W  A    A  R    R  N N  N  II  N N  N  G       !!!           |
|           W WW W  AAAAAA  RRRRR   N  N N  II  N  N N  G  GGG   !            |
|           WW  WW  A    A  R   R   N   NN  II  N   NN  G    G                |
|           W    W  A    A  R    R  N    N  II  N    N   GGGG   !!!           |
|                                                                             |
|      You have enabled k-point parallelism (KPAR>1).                         |
|      This developmental code was originally  written by Paul Kent at ORNL,  |
|      and carefully double checked in Vienna.                                |
|      GW as well as linear response parallelism added by Martijn Marsman     |
|      and Georg Kresse.                                                      |
|      Carefully verify results versus KPAR=1.                                |
|      Report problems to Paul Kent and Vienna.                               |
|                                                                             |
 ----------------------------------------------------------------------------- 

 LDA part: xc-table for Pade appr. of Perdew
 POSCAR found type information on POSCAR  Ti
 POSCAR found :  1 types and      36 ions
 POSCAR, INCAR and KPOINTS ok, starting setup
 FFT: planning ...
 WAVECAR not read
 WARNING: random wavefunctions but no delay for mixing, default for NELMDL
 entering main loop
       N       E                     dE             d eps       ncg     rms          rms(c)
DAV:   1     0.737661685412E+03    0.73766E+03   -0.41818E+04  2208   0.112E+03
DAV:   2    -0.191661176045E+03   -0.92932E+03   -0.89238E+03  2208   0.253E+02
DAV:   3    -0.325060552022E+03   -0.13340E+03   -0.12288E+03  3208   0.914E+01
DAV:   4    -0.334235392874E+03   -0.91748E+01   -0.84781E+01  3208   0.290E+01
DAV:   5    -0.334745314933E+03   -0.50992E+00   -0.48470E+00  3560   0.545E+00    0.824E+01
DAV:   6    -0.535771607809E+03   -0.20103E+03   -0.29227E+03  4160   0.956E+01    0.110E+02
DAV:   7    -0.292063946609E+03    0.24371E+03   -0.44770E+03  4092   0.166E+02    0.370E+01
DAV:   8    -0.280586222168E+03    0.11478E+02   -0.49820E+02  3216   0.765E+01    0.369E+01
DAV:   9    -0.275934484826E+03    0.46517E+01   -0.35212E+01  3704   0.134E+01    0.301E+01
DAV:  10    -0.279182896517E+03   -0.32484E+01   -0.47442E+00  3484   0.513E+00    0.335E+01
DAV:  11    -0.264587595070E+03    0.14595E+02   -0.33419E+01  3156   0.200E+01    0.114E+01
DAV:  12    -0.263470956847E+03    0.11166E+01   -0.33505E+00  3552   0.552E+00    0.773E+00
DAV:  13    -0.262770295694E+03    0.70066E+00   -0.12121E+00  2832   0.415E+00    0.469E+00
[...]
DAV:   7    -0.678372382907E+03    0.11724E+04   -0.91756E+03  7664   0.143E+02    0.102E+02
DAV:   8    -0.525497641822E+03    0.15287E+03   -0.37257E+03  6632   0.176E+02    0.418E+01
DAV:   9    -0.587112574197E+03   -0.61615E+02   -0.11308E+03  7640   0.755E+01    0.520E+01
DAV:  10    -0.554801996905E+03    0.32311E+02   -0.36975E+02  7080   0.473E+01    0.440E+01
DAV:  11    -0.534975281140E+03    0.19827E+02   -0.78447E+01  6792   0.213E+01    0.364E+01
DAV:  12    -0.527953512828E+03    0.70218E+01   -0.14731E+01  6760   0.751E+00    0.312E+01
DAV:  13    -0.519460368984E+03    0.84931E+01   -0.35624E+01  6616   0.145E+01    0.219E+01
DAV:  14    -0.518874593372E+03    0.58578E+00   -0.27734E+01  6872   0.137E+01    0.205E+01
DAV:  15    -0.517113209644E+03    0.17614E+01   -0.32067E+00  6256   0.464E+00    0.177E+01
DAV:  16    -0.515787656766E+03    0.13256E+01   -0.66565E-01  6360   0.192E+00    0.158E+01
DAV:  17    -0.514304004909E+03    0.14837E+01   -0.26987E+00  6448   0.379E+00    0.137E+01
DAV:  18    -0.513066027603E+03    0.12380E+01   -0.34220E+00  6248   0.428E+00    0.115E+01
DAV:  19    -0.511412454499E+03    0.16536E+01   -0.21551E+00  6680   0.319E+00    0.765E+00
DAV:  20    -0.510740664743E+03    0.67179E+00   -0.10443E+00  6488   0.242E+00    0.540E+00
DAV:  21    -0.510321687139E+03    0.41898E+00   -0.11966E+00  6464   0.270E+00    0.332E+00
DAV:  22    -0.510337963456E+03   -0.16276E-01   -0.51555E-01  6520   0.181E+00    0.328E+00
DAV:  23    -0.510225250964E+03    0.11271E+00   -0.22004E-01  6464   0.119E+00    0.243E+00
DAV:  24    -0.510130272389E+03    0.94979E-01   -0.19100E-01  6688   0.980E-01    0.131E+00
DAV:  25    -0.510104681544E+03    0.25591E-01   -0.93424E-02  6584   0.685E-01    0.787E-01
DAV:  26    -0.510097852735E+03    0.68288E-02   -0.41299E-02  6448   0.456E-01    0.538E-01
DAV:  27    -0.510095276251E+03    0.25765E-02   -0.13195E-02  6496   0.251E-01    0.416E-01
DAV:  28    -0.510095403292E+03   -0.12704E-03   -0.60442E-03  6288   0.201E-01    0.334E-01
DAV:  29    -0.510095027798E+03    0.37549E-03   -0.94493E-03  6360   0.224E-01    0.279E-01
DAV:  30    -0.510094348677E+03    0.67912E-03   -0.43659E-03  6480   0.153E-01    0.177E-01
DAV:  31    -0.510094270840E+03    0.77837E-04   -0.10360E-03  6528   0.797E-02    0.137E-01
DAV:  32    -0.510094275957E+03   -0.51176E-05   -0.73845E-04  6208   0.713E-02    0.115E-01
DAV:  33    -0.510094212635E+03    0.63322E-04   -0.30334E-04  6216   0.412E-02    0.858E-02
DAV:  34    -0.510094170878E+03    0.41757E-04   -0.29950E-04  6344   0.426E-02    0.539E-02
DAV:  35    -0.510094171813E+03   -0.93467E-06   -0.67646E-05  6056   0.211E-02    0.440E-02
DAV:  36    -0.510094164253E+03    0.75599E-05   -0.26755E-05  4640   0.131E-02    0.260E-02
DAV:  37    -0.510094165183E+03   -0.93049E-06   -0.30642E-05  4784   0.139E-02
   1 F= -.51009417E+03 E0= -.51001402E+03  d E =-.160285E+00
Distance=9.500
 running on   16 total cores
 distrk:  each k-point on    8 cores,    2 groups
 distr:  one band on    4 cores,    2 groups
 using from now: INCAR     
 vasp.5.4.4.18Apr17-6-g9f103f2a35 (build Nov 27 2019 20:08:17) complex          
  
 POSCAR found type information on POSCAR  Ti
 POSCAR found :  1 types and      32 ions
 scaLAPACK will be used

 ----------------------------------------------------------------------------- 
|                                                                             |
|           W    W    AA    RRRRR   N    N  II  N    N   GGGG   !!!           |
|           W    W   A  A   R    R  NN   N  II  NN   N  G    G  !!!           |
|           W    W  A    A  R    R  N N  N  II  N N  N  G       !!!           |
|           W WW W  AAAAAA  RRRRR   N  N N  II  N  N N  G  GGG   !            |
|           WW  WW  A    A  R   R   N   NN  II  N   NN  G    G                |
|           W    W  A    A  R    R  N    N  II  N    N   GGGG   !!!           |
|                                                                             |
|      You have enabled k-point parallelism (KPAR>1).                         |
|      This developmental code was originally  written by Paul Kent at ORNL,  |
|      and carefully double checked in Vienna.                                |
|      GW as well as linear response parallelism added by Martijn Marsman     |
|      and Georg Kresse.                                                      |
|      Carefully verify results versus KPAR=1.                                |
|      Report problems to Paul Kent and Vienna.                               |
|                                                                             |
 ----------------------------------------------------------------------------- 

 LDA part: xc-table for Pade appr. of Perdew
 POSCAR found type information on POSCAR  Ti
 POSCAR found :  1 types and      32 ions
 POSCAR, INCAR and KPOINTS ok, starting setup
 FFT: planning ...
 WAVECAR not read
 entering main loop
       N       E                     dE             d eps       ncg     rms          rms(c)
DAV:   1     0.596307403158E+03    0.59631E+03   -0.35902E+04  1968   0.108E+03
DAV:   2    -0.165464067792E+03   -0.76177E+03   -0.73334E+03  1968   0.241E+02
DAV:   3    -0.277095944323E+03   -0.11163E+03   -0.10523E+03  3072   0.832E+01
DAV:   4    -0.286520684079E+03   -0.94247E+01   -0.87537E+01  3096   0.264E+01
DAV:   5    -0.287113382095E+03   -0.59270E+00   -0.56364E+00  3200   0.552E+00    0.670E+01
DAV:   6    -0.419407949454E+03   -0.13229E+03   -0.22728E+03  3664   0.954E+01    0.836E+01
DAV:   7    -0.251668300897E+03    0.16774E+03   -0.26099E+03  3416   0.157E+02    0.297E+01
DAV:   8    -0.251982758322E+03   -0.31446E+00   -0.45957E+02  3020   0.653E+01    0.308E+01
DAV:   9    -0.236690016405E+03    0.15293E+02   -0.92612E+01  3034   0.287E+01    0.202E+01
DAV:  10    -0.236080378528E+03    0.60964E+00   -0.10157E+01  3248   0.700E+00    0.182E+01
DAV:  11    -0.237421972538E+03   -0.13416E+01   -0.36530E+00  3256   0.469E+00    0.201E+01
DAV:  12    -0.234094536782E+03    0.33274E+01   -0.68420E+00  3040   0.944E+00    0.142E+01
DAV:  13    -0.230688623441E+03    0.34059E+01   -0.88091E+00  2854   0.108E+01    0.662E+00
DAV:  14    -0.230332451034E+03    0.35617E+00   -0.16889E+00  3296   0.326E+00    0.475E+00
DAV:  15    -0.230225552090E+03    0.10690E+00   -0.14013E+00  2752   0.440E+00    0.432E+00
DAV:  16    -0.230032606417E+03    0.19295E+00   -0.18201E+00  3104   0.347E+00    0.169E+00
DAV:  17    -0.230022331470E+03    0.10275E-01   -0.11535E-01  3046   0.988E-01    0.989E-01
DAV:  18    -0.230006596956E+03    0.15735E-01   -0.70647E-02  3184   0.677E-01    0.309E-01
DAV:  19    -0.230006485039E+03    0.11192E-03   -0.18852E-02  3256   0.389E-01    0.195E-01
DAV:  20    -0.230006137870E+03    0.34717E-03   -0.49390E-03  3056   0.239E-01    0.104E-01
DAV:  21    -0.230006087212E+03    0.50658E-04   -0.17983E-03  2480   0.155E-01    0.682E-02
DAV:  22    -0.230007571974E+03   -0.14848E-02   -0.20560E-03  3040   0.117E-01    0.102E-01
DAV:  23    -0.230008203578E+03   -0.63160E-03   -0.10775E-03  2968   0.976E-02    0.404E-02
DAV:  24    -0.230008660230E+03   -0.45665E-03   -0.18421E-04  2488   0.468E-02    0.154E-02
DAV:  25    -0.230008886239E+03   -0.22601E-03   -0.75523E-05  2520   0.280E-02    0.199E-02
DAV:  26    -0.230008921285E+03   -0.35046E-04   -0.22272E-05  2040   0.136E-02    0.799E-03
DAV:  27    -0.230008926884E+03   -0.55993E-05   -0.45830E-06  1520   0.654E-03    0.558E-03
DAV:  28    -0.230008927789E+03   -0.90475E-06   -0.13617E-06  1392   0.370E-03
   1 F= -.23000893E+03 E0= -.22995111E+03  d E =-.115637E+00
 running on   16 total cores
 distrk:  each k-point on    8 cores,    2 groups
 distr:  one band on    4 cores,    2 groups
 using from now: INCAR     
 vasp.5.4.4.18Apr17-6-g9f103f2a35 (build Nov 27 2019 20:08:17) complex          
  
 POSCAR found type information on POSCAR  Ti
 POSCAR found :  1 types and      36 ions
 scaLAPACK will be used

 ----------------------------------------------------------------------------- 
|                                                                             |
|           W    W    AA    RRRRR   N    N  II  N    N   GGGG   !!!           |
|           W    W   A  A   R    R  NN   N  II  NN   N  G    G  !!!           |
|           W    W  A    A  R    R  N N  N  II  N N  N  G       !!!           |
|           W WW W  AAAAAA  RRRRR   N  N N  II  N  N N  G  GGG   !            |
|           WW  WW  A    A  R   R   N   NN  II  N   NN  G    G                |
|           W    W  A    A  R    R  N    N  II  N    N   GGGG   !!!           |
|                                                                             |
|      You have enabled k-point parallelism (KPAR>1).                         |
|      This developmental code was originally  written by Paul Kent at ORNL,  |
|      and carefully double checked in Vienna.                                |
|      GW as well as linear response parallelism added by Martijn Marsman     |
|      and Georg Kresse.                                                      |
|      Carefully verify results versus KPAR=1.                                |
|      Report problems to Paul Kent and Vienna.                               |
|                                                                             |
 ----------------------------------------------------------------------------- 

 LDA part: xc-table for Pade appr. of Perdew
 POSCAR found type information on POSCAR  Ti
 POSCAR found :  1 types and      36 ions
 POSCAR, INCAR and KPOINTS ok, starting setup
 FFT: planning ...
 WAVECAR not read
 WARNING: random wavefunctions but no delay for mixing, default for NELMDL
 entering main loop
       N       E                     dE             d eps       ncg     rms          rms(c)
DAV:   1     0.748849027676E+03    0.74885E+03   -0.41827E+04  2208   0.111E+03
DAV:   2    -0.190305911950E+03   -0.93915E+03   -0.90140E+03  2208   0.251E+02
DAV:   3    -0.324795912977E+03   -0.13449E+03   -0.12393E+03  3240   0.907E+01
DAV:   4    -0.334236160360E+03   -0.94402E+01   -0.86847E+01  3176   0.291E+01
DAV:   5    -0.334745175942E+03   -0.50902E+00   -0.48977E+00  3600   0.560E+00    0.824E+01
DAV:   6    -0.527289635740E+03   -0.19254E+03   -0.28141E+03  4156   0.945E+01    0.109E+02
DAV:   7    -0.297027760632E+03    0.23026E+03   -0.45595E+03  4060   0.167E+02    0.378E+01
DAV:   8    -0.281415638612E+03    0.15612E+02   -0.50333E+02  3212   0.772E+01    0.370E+01
DAV:   9    -0.277151438288E+03    0.42642E+01   -0.33576E+01  3760   0.135E+01    0.311E+01
DAV:  10    -0.277541318363E+03   -0.38988E+00   -0.20194E+00  3540   0.242E+00    0.315E+01
DAV:  11    -0.267469976879E+03    0.10071E+02   -0.18014E+01  3360   0.136E+01    0.182E+01
DAV:  12    -0.266180220434E+03    0.12898E+01   -0.17116E+00  3280   0.440E+00    0.154E+01
DAV:  13    -0.264367516541E+03    0.18127E+01   -0.16199E+00  3000   0.468E+00    0.108E+01
DAV:  14    -0.262958678461E+03    0.14088E+01   -0.22147E+00  3168   0.519E+00    0.536E+00
DAV:  15    -0.262527977978E+03    0.43070E+00   -0.11518E+00  2832   0.409E+00    0.306E+00
DAV:  16    -0.262605044579E+03   -0.77067E-01   -0.22360E+00  3264   0.465E+00    0.447E+00
DAV:  17    -0.262599468746E+03    0.55758E-02   -0.20703E-01  3296   0.121E+00    0.376E+00
DAV:  18    -0.262555579695E+03    0.43889E-01   -0.61031E-02  3312   0.790E-01    0.318E+00
DAV:  19    -0.262495373758E+03    0.60206E-01   -0.88055E-02  2936   0.102E+00    0.200E+00
DAV:  20    -0.262456644562E+03    0.38729E-01   -0.13039E-01  2968   0.128E+00    0.559E-01
DAV:  21    -0.262456812822E+03   -0.16826E-03   -0.18952E-02  3608   0.371E-01    0.165E-01
DAV:  22    -0.262457829196E+03   -0.10164E-02   -0.14189E-03  2992   0.129E-01    0.207E-01
DAV:  23    -0.262458480466E+03   -0.65127E-03   -0.82601E-04  2460   0.949E-02    0.125E-01
DAV:  24    -0.262458548576E+03   -0.68110E-04   -0.17414E-03  3308   0.126E-01    0.276E-02
DAV:  25    -0.262458664670E+03   -0.11609E-03   -0.84543E-05  3040   0.292E-02    0.437E-02
DAV:  26    -0.262458689723E+03   -0.25054E-04   -0.14539E-04  2700   0.408E-02    0.832E-03
DAV:  27    -0.262458698708E+03   -0.89842E-05   -0.21962E-05  2348   0.162E-02    0.132E-02
DAV:  28    -0.262458700033E+03   -0.13253E-05   -0.11898E-06  1492   0.393E-03
   1 F= -.26245870E+03 E0= -.26240624E+03  d E =-.104913E+00
 running on   16 total cores
 distrk:  each k-point on    8 cores,    2 groups
 distr:  one band on    4 cores,    2 groups
 using from now: INCAR     
 vasp.5.4.4.18Apr17-6-g9f103f2a35 (build Nov 27 2019 20:08:17) complex          
  
 POSCAR found type information on POSCAR  Ti
 POSCAR found :  1 types and      68 ions
 scaLAPACK will be used

 ----------------------------------------------------------------------------- 
|                                                                             |
|           W    W    AA    RRRRR   N    N  II  N    N   GGGG   !!!           |
|           W    W   A  A   R    R  NN   N  II  NN   N  G    G  !!!           |
|           W    W  A    A  R    R  N N  N  II  N N  N  G       !!!           |
|           W WW W  AAAAAA  RRRRR   N  N N  II  N  N N  G  GGG   !            |
|           WW  WW  A    A  R   R   N   NN  II  N   NN  G    G                |
|           W    W  A    A  R    R  N    N  II  N    N   GGGG   !!!           |
|                                                                             |
|      You have enabled k-point parallelism (KPAR>1).                         |
|      This developmental code was originally  written by Paul Kent at ORNL,  |
|      and carefully double checked in Vienna.                                |
|      GW as well as linear response parallelism added by Martijn Marsman     |
|      and Georg Kresse.                                                      |
|      Carefully verify results versus KPAR=1.                                |
|      Report problems to Paul Kent and Vienna.                               |
|                                                                             |
 ----------------------------------------------------------------------------- 

 LDA part: xc-table for Pade appr. of Perdew
 POSCAR found type information on POSCAR  Ti
 POSCAR found :  1 types and      68 ions
 POSCAR, INCAR and KPOINTS ok, starting setup
 FFT: planning ...
 WAVECAR not read
 WARNING: random wavefunctions but no delay for mixing, default for NELMDL
 entering main loop
       N       E                     dE             d eps       ncg     rms          rms(c)
DAV:   1     0.115201240157E+04    0.11520E+04   -0.78135E+04  4128   0.123E+03
DAV:   2    -0.364513591012E+03   -0.15165E+04   -0.14710E+04  4128   0.273E+02
DAV:   3    -0.595418643446E+03   -0.23091E+03   -0.21489E+03  6152   0.961E+01
DAV:   4    -0.613650453953E+03   -0.18232E+02   -0.17259E+02  6080   0.286E+01
DAV:   5    -0.614366032698E+03   -0.71558E+00   -0.69262E+00  5968   0.445E+00    0.107E+02
DAV:   6    -0.189059754176E+04   -0.12762E+04   -0.13769E+04  8088   0.194E+02    0.131E+02
DAV:   7    -0.679496990297E+03    0.12111E+04   -0.92441E+03  7712   0.143E+02    0.103E+02
DAV:   8    -0.524648923218E+03    0.15485E+03   -0.37806E+03  6608   0.177E+02    0.413E+01
DAV:   9    -0.584889056855E+03   -0.60240E+02   -0.11317E+03  7648   0.751E+01    0.523E+01
DAV:  10    -0.552705308888E+03    0.32184E+02   -0.37038E+02  7096   0.475E+01    0.434E+01
DAV:  11    -0.532864212075E+03    0.19841E+02   -0.79026E+01  6880   0.217E+01    0.352E+01
DAV:  12    -0.526060435368E+03    0.68038E+01   -0.17598E+01  6752   0.828E+00    0.299E+01
DAV:  13    -0.518142309288E+03    0.79181E+01   -0.38785E+01  6608   0.149E+01    0.206E+01
DAV:  14    -0.518131243651E+03    0.11066E-01   -0.26791E+01  6904   0.136E+01    0.199E+01
DAV:  15    -0.516575252405E+03    0.15560E+01   -0.31208E+00  6232   0.458E+00    0.174E+01
DAV:  16    -0.515374096608E+03    0.12012E+01   -0.60876E-01  6392   0.183E+00    0.157E+01
DAV:  17    -0.513548793933E+03    0.18253E+01   -0.28529E+00  6504   0.392E+00    0.129E+01
DAV:  18    -0.512194849093E+03    0.13539E+01   -0.35014E+00  6280   0.432E+00    0.103E+01
DAV:  19    -0.510892002175E+03    0.13028E+01   -0.18834E+00  6680   0.304E+00    0.695E+00
DAV:  20    -0.510240983104E+03    0.65102E+00   -0.10027E+00  6504   0.236E+00    0.457E+00
DAV:  21    -0.509958274297E+03    0.28271E+00   -0.12847E+00  6488   0.278E+00    0.290E+00
DAV:  22    -0.509954976533E+03    0.32978E-02   -0.37702E-01  6360   0.156E+00    0.276E+00
DAV:  23    -0.509854293221E+03    0.10068E+00   -0.21823E-01  6400   0.110E+00    0.176E+00
DAV:  24    -0.509796419680E+03    0.57874E-01   -0.19736E-01  6704   0.907E-01    0.706E-01
DAV:  25    -0.509800786504E+03   -0.43668E-02   -0.62872E-02  6512   0.645E-01    0.807E-01
DAV:  26    -0.509790940837E+03    0.98457E-02   -0.27660E-02  6640   0.407E-01    0.466E-01
DAV:  27    -0.509789597764E+03    0.13431E-02   -0.12802E-02  6744   0.252E-01    0.387E-01
DAV:  28    -0.509789449701E+03    0.14806E-03   -0.68229E-03  6216   0.214E-01    0.289E-01
DAV:  29    -0.509789009932E+03    0.43977E-03   -0.59078E-03  6224   0.173E-01    0.211E-01
DAV:  30    -0.509788699126E+03    0.31081E-03   -0.28910E-03  6408   0.120E-01    0.146E-01
DAV:  31    -0.509788657908E+03    0.41218E-04   -0.75445E-04  6528   0.704E-02    0.118E-01
DAV:  32    -0.509788621627E+03    0.36281E-04   -0.40257E-04  6232   0.509E-02    0.938E-02
DAV:  33    -0.509788580585E+03    0.41042E-04   -0.17916E-04  6216   0.330E-02    0.677E-02
DAV:  34    -0.509788562871E+03    0.17714E-04   -0.22953E-04  6328   0.362E-02    0.467E-02
DAV:  35    -0.509788563125E+03   -0.25407E-06   -0.52356E-05  5808   0.176E-02    0.398E-02
DAV:  36    -0.509788552287E+03    0.10838E-04   -0.39843E-05  5216   0.158E-02    0.173E-02
DAV:  37    -0.509788551374E+03    0.91267E-06   -0.18981E-05  3752   0.123E-02
   1 F= -.50978855E+03 E0= -.50970857E+03  d E =-.159955E+00

DISTANCE=0.500
E_alpha= -230.009636  E_beta= -262.459462  E_total= -505.832894 
W_seq=-13.363796

DISTANCE=1.000
E_alpha= -230.009100  E_beta= -262.458937  E_total= -507.534016 
W_seq=-15.065979

DISTANCE=1.500
E_alpha= -230.009012  E_beta= -262.458832  E_total= -508.854794 
W_seq=-16.386950

DISTANCE=2.000
E_alpha= -230.008951  E_beta= -262.458795  E_total= -509.855895 
W_seq=-17.388149

DISTANCE=2.500
E_alpha= -230.009113  E_beta= -262.458958  E_total= -510.589475 
W_seq=-18.121404

DISTANCE=3.000
E_alpha= -230.009001  E_beta= -262.458898  E_total= -511.101783 
W_seq=-18.633884

DISTANCE=3.500
E_alpha= -230.008940  E_beta= -262.458775  E_total= -511.434135 
W_seq=-18.966420

DISTANCE=4.000
E_alpha= -230.008941  E_beta= -262.458840  E_total= -511.623314 
W_seq=-19.155533

DISTANCE=4.500
E_alpha= -230.009076  E_beta= -262.458934  E_total= -511.699315 
W_seq=-19.231305

DISTANCE=5.000
E_alpha= -230.008957  E_beta= -262.458867  E_total= -511.688322 
W_seq=-19.220498

DISTANCE=5.500
E_alpha= -230.008891  E_beta= -262.458666  E_total= -511.611091 
W_seq=-19.143534

DISTANCE=6.000
E_alpha= -230.008947  E_beta= -262.458799  E_total= -511.484099 
W_seq=-19.016353

DISTANCE=6.500
E_alpha= -230.009107  E_beta= -262.458918  E_total= -511.317574 
W_seq=-18.849549

DISTANCE=7.000
E_alpha= -230.008936  E_beta= -262.458844  E_total= -511.119116 
W_seq=-18.651336

DISTANCE=7.500
E_alpha= -230.008784  E_beta= -262.458808  E_total= -510.894373 
W_seq=-18.426781

DISTANCE=8.000
E_alpha= -230.008956  E_beta= -262.458769  E_total= -510.647816 
W_seq=-18.180091

DISTANCE=8.500
E_alpha= -230.008912  E_beta= -262.458795  E_total= -510.380635 
W_seq=-17.912928

DISTANCE=9.000
E_alpha= -230.008918  E_beta= -262.458746  E_total= -510.094165 
W_seq=-17.626501

DISTANCE=9.500
E_alpha= -230.008928  E_beta= -262.458700  E_total= -509.788551 
W_seq=-17.320923

