Distance=0.500
 running on   24 total cores
 distrk:  each k-point on    8 cores,    3 groups
 distr:  one band on    8 cores,    1 groups
 using from now: INCAR     
 vasp.5.4.4.18Apr17-6-g9f103f2a35 (build Jun 27 2018 15:25:23) complex          
  
 POSCAR found type information on POSCAR  Ti
 POSCAR found :  1 types and      54 ions
 scaLAPACK will be used

 ----------------------------------------------------------------------------- 
|                                                                             |
|           W    W    AA    RRRRR   N    N  II  N    N   GGGG   !!!           |
|           W    W   A  A   R    R  NN   N  II  NN   N  G    G  !!!           |
|           W    W  A    A  R    R  N N  N  II  N N  N  G       !!!           |
|           W WW W  AAAAAA  RRRRR   N  N N  II  N  N N  G  GGG   !            |
|           WW  WW  A    A  R   R   N   NN  II  N   NN  G    G                |
|           W    W  A    A  R    R  N    N  II  N    N   GGGG   !!!           |
|                                                                             |
|      You have enabled k-point parallelism (KPAR>1).                         |
|      This developmental code was originally  written by Paul Kent at ORNL,  |
|      and carefully double checked in Vienna.                                |
|      GW as well as linear response parallelism added by Martijn Marsman     |
|      and Georg Kresse.                                                      |
|      Carefully verify results versus KPAR=1.                                |
|      Report problems to Paul Kent and Vienna.                               |
|                                                                             |
 ----------------------------------------------------------------------------- 

 LDA part: xc-table for Pade appr. of Perdew
 POSCAR found type information on POSCAR  Ti
 POSCAR found :  1 types and      54 ions
 POSCAR, INCAR and KPOINTS ok, starting setup
 FFT: planning ...
 WAVECAR not read
 entering main loop
       N       E                     dE             d eps       ncg     rms          rms(c)
DAV:   1     0.955457515869E+03    0.95546E+03   -0.62024E+04  1904   0.117E+03
DAV:   2    -0.284293573223E+03   -0.12398E+04   -0.12032E+04  1904   0.260E+02
DAV:   3    -0.469615461846E+03   -0.18532E+03   -0.17645E+03  2984   0.897E+01
DAV:   4    -0.485271113668E+03   -0.15656E+02   -0.14878E+02  3048   0.266E+01
DAV:   5    -0.486218387962E+03   -0.94727E+00   -0.89195E+00  3048   0.486E+00    0.859E+01
DAV:   6    -0.949818766767E+03   -0.46360E+03   -0.56074E+03  3776   0.110E+02    0.130E+02
DAV:   7    -0.417515089361E+03    0.53230E+03   -0.66550E+03  3464   0.155E+02    0.447E+01
DAV:   8    -0.407269532856E+03    0.10246E+02   -0.10005E+03  3096   0.870E+01    0.313E+01
DAV:   9    -0.414994413318E+03   -0.77249E+01   -0.17305E+02  3112   0.254E+01    0.284E+01
DAV:  10    -0.417930112548E+03   -0.29357E+01   -0.14409E+01  3120   0.666E+00    0.310E+01
DAV:  11    -0.417391057973E+03    0.53905E+00   -0.11517E+00  3096   0.146E+00    0.305E+01
DAV:  12    -0.409449590567E+03    0.79415E+01   -0.63685E+00  2432   0.823E+00    0.217E+01
DAV:  13    -0.400485389574E+03    0.89642E+01   -0.28427E+01  2504   0.167E+01    0.697E+00
DAV:  14    -0.400547681565E+03   -0.62292E-01   -0.22409E+00  2864   0.436E+00    0.676E+00
DAV:  15    -0.400645922277E+03   -0.98241E-01   -0.13359E-01  2840   0.893E-01    0.661E+00
DAV:  16    -0.400524634580E+03    0.12129E+00   -0.73242E-01  3040   0.228E+00    0.295E+00
DAV:  17    -0.400333900515E+03    0.19073E+00   -0.72571E-01  2656   0.248E+00    0.218E+00
DAV:  18    -0.400274698279E+03    0.59202E-01   -0.14375E-01  2832   0.797E-01    0.147E+00
DAV:  19    -0.400253117166E+03    0.21581E-01   -0.36031E-02  3024   0.395E-01    0.945E-01
DAV:  20    -0.400248006003E+03    0.51112E-02   -0.25981E-02  3096   0.307E-01    0.924E-01
DAV:  21    -0.400244126422E+03    0.38796E-02   -0.56362E-02  2800   0.556E-01    0.413E-01
DAV:  22    -0.400243483556E+03    0.64287E-03   -0.13402E-02  2848   0.343E-01    0.312E-01
DAV:  23    -0.400244233242E+03   -0.74969E-03   -0.40068E-03  2928   0.141E-01    0.134E-01
DAV:  24    -0.400244427633E+03   -0.19439E-03   -0.11126E-03  3168   0.547E-02    0.668E-02
DAV:  25    -0.400244473775E+03   -0.46141E-04   -0.29785E-04  2792   0.465E-02    0.445E-02
DAV:  26    -0.400244474142E+03   -0.36688E-06   -0.12530E-04  2952   0.291E-02    0.267E-02
DAV:  27    -0.400244467057E+03    0.70847E-05   -0.36584E-05  2368   0.174E-02    0.112E-02
DAV:  28    -0.400244466408E+03    0.64866E-06   -0.91338E-06  1464   0.933E-03
   1 F= -.40024447E+03 E0= -.40019004E+03  d E =-.108853E+00
 running on   24 total cores
 distrk:  each k-point on    8 cores,    3 groups
 distr:  one band on    8 cores,    1 groups
 using from now: INCAR     
 vasp.5.4.4.18Apr17-6-g9f103f2a35 (build Jun 27 2018 15:25:23) complex          
  
 POSCAR found type information on POSCAR  Ti
 POSCAR found :  1 types and      36 ions
 scaLAPACK will be used

 ----------------------------------------------------------------------------- 
|                                                                             |
|           W    W    AA    RRRRR   N    N  II  N    N   GGGG   !!!           |
|           W    W   A  A   R    R  NN   N  II  NN   N  G    G  !!!           |
|           W    W  A    A  R    R  N N  N  II  N N  N  G       !!!           |
|           W WW W  AAAAAA  RRRRR   N  N N  II  N  N N  G  GGG   !            |
|           WW  WW  A    A  R   R   N   NN  II  N   NN  G    G                |
|           W    W  A    A  R    R  N    N  II  N    N   GGGG   !!!           |
|                                                                             |
|      You have enabled k-point parallelism (KPAR>1).                         |
|      This developmental code was originally  written by Paul Kent at ORNL,  |
|      and carefully double checked in Vienna.                                |
|      GW as well as linear response parallelism added by Martijn Marsman     |
|      and Georg Kresse.                                                      |
|      Carefully verify results versus KPAR=1.                                |
|      Report problems to Paul Kent and Vienna.                               |
|                                                                             |
 ----------------------------------------------------------------------------- 

 LDA part: xc-table for Pade appr. of Perdew
 POSCAR found type information on POSCAR  Ti
 POSCAR found :  1 types and      36 ions
 POSCAR, INCAR and KPOINTS ok, starting setup
 FFT: planning ...
 WAVECAR not read
 WARNING: random wavefunctions but no delay for mixing, default for NELMDL
 entering main loop
       N       E                     dE             d eps       ncg     rms          rms(c)
DAV:   1     0.720039195754E+03    0.72004E+03   -0.41009E+04  1274   0.110E+03
DAV:   2    -0.184963435676E+03   -0.90500E+03   -0.87083E+03  1274   0.247E+02
DAV:   3    -0.320300457594E+03   -0.13534E+03   -0.12717E+03  1932   0.886E+01
DAV:   4    -0.330601301948E+03   -0.10301E+02   -0.96189E+01  1868   0.286E+01
DAV:   5    -0.331137120691E+03   -0.53582E+00   -0.52481E+00  2020   0.598E+00    0.782E+01
DAV:   6    -0.506020616689E+03   -0.17488E+03   -0.30217E+03  2396   0.101E+02    0.998E+01
DAV:   7    -0.279886856261E+03    0.22613E+03   -0.38010E+03  2215   0.175E+02    0.329E+01
DAV:   8    -0.286544651907E+03   -0.66578E+01   -0.59432E+02  1906   0.781E+01    0.396E+01
DAV:   9    -0.267484222960E+03    0.19060E+02   -0.11158E+02  1982   0.356E+01    0.283E+01
DAV:  10    -0.264474075570E+03    0.30101E+01   -0.95211E+00  2036   0.804E+00    0.249E+01
DAV:  11    -0.262838098298E+03    0.16360E+01   -0.19286E+00  2089   0.396E+00    0.220E+01
DAV:  12    -0.260694008576E+03    0.21441E+01   -0.89885E+00  1932   0.906E+00    0.180E+01
DAV:  13    -0.256265098661E+03    0.44289E+01   -0.20873E+01  2084   0.126E+01    0.607E+00
DAV:  14    -0.256035056550E+03    0.23004E+00   -0.24689E+00  2060   0.396E+00    0.398E+00
DAV:  15    -0.256266327834E+03   -0.23127E+00   -0.11475E+00  2004   0.299E+00    0.534E+00
DAV:  16    -0.255884966549E+03    0.38136E+00   -0.21188E+00  2076   0.365E+00    0.250E+00
DAV:  17    -0.255805208888E+03    0.79758E-01   -0.70886E-01  1940   0.273E+00    0.105E+00
DAV:  18    -0.255803009821E+03    0.21991E-02   -0.12949E-01  1916   0.105E+00    0.102E+00
DAV:  19    -0.255796205278E+03    0.68045E-02   -0.12755E-01  1932   0.117E+00    0.547E-01
DAV:  20    -0.255800151712E+03   -0.39464E-02   -0.13152E-01  1988   0.935E-01    0.864E-01
DAV:  21    -0.255795253494E+03    0.48982E-02   -0.14001E-01  1916   0.104E+00    0.619E-01
DAV:  22    -0.255792572353E+03    0.26811E-02   -0.18683E-02  1916   0.380E-01    0.172E-01
DAV:  23    -0.255795380489E+03   -0.28081E-02   -0.12262E-02  1972   0.296E-01    0.295E-01
DAV:  24    -0.255795945351E+03   -0.56486E-03   -0.88785E-03  1940   0.255E-01    0.930E-02
DAV:  25    -0.255796772699E+03   -0.82735E-03   -0.64101E-04  1956   0.554E-02    0.894E-02
DAV:  26    -0.255797228122E+03   -0.45542E-03   -0.38596E-04  2028   0.530E-02    0.261E-02
DAV:  27    -0.255797343656E+03   -0.11553E-03   -0.98888E-05  1956   0.252E-02    0.124E-02
DAV:  28    -0.255797370892E+03   -0.27236E-04   -0.74223E-06  1028   0.863E-03    0.127E-02
DAV:  29    -0.255797378223E+03   -0.73308E-05   -0.30631E-06   892   0.600E-03    0.901E-03
DAV:  30    -0.255797380664E+03   -0.24413E-05   -0.17275E-06   868   0.413E-03
   1 F= -.25579738E+03 E0= -.25572860E+03  d E =-.137560E+00
 running on   24 total cores
 distrk:  each k-point on    8 cores,    3 groups
 distr:  one band on    8 cores,    1 groups
 using from now: INCAR     
 vasp.5.4.4.18Apr17-6-g9f103f2a35 (build Jun 27 2018 15:25:23) complex          
  
 POSCAR found type information on POSCAR  Ti
 POSCAR found :  1 types and      90 ions
 scaLAPACK will be used

 ----------------------------------------------------------------------------- 
|                                                                             |
|           W    W    AA    RRRRR   N    N  II  N    N   GGGG   !!!           |
|           W    W   A  A   R    R  NN   N  II  NN   N  G    G  !!!           |
|           W    W  A    A  R    R  N N  N  II  N N  N  G       !!!           |
|           W WW W  AAAAAA  RRRRR   N  N N  II  N  N N  G  GGG   !            |
|           WW  WW  A    A  R   R   N   NN  II  N   NN  G    G                |
|           W    W  A    A  R    R  N    N  II  N    N   GGGG   !!!           |
|                                                                             |
|      You have enabled k-point parallelism (KPAR>1).                         |
|      This developmental code was originally  written by Paul Kent at ORNL,  |
|      and carefully double checked in Vienna.                                |
|      GW as well as linear response parallelism added by Martijn Marsman     |
|      and Georg Kresse.                                                      |
|      Carefully verify results versus KPAR=1.                                |
|      Report problems to Paul Kent and Vienna.                               |
|                                                                             |
 ----------------------------------------------------------------------------- 

 LDA part: xc-table for Pade appr. of Perdew
 POSCAR found type information on POSCAR  Ti
 POSCAR found :  1 types and      90 ions

 ----------------------------------------------------------------------------- 
|                                                                             |
|           W    W    AA    RRRRR   N    N  II  N    N   GGGG   !!!           |
|           W    W   A  A   R    R  NN   N  II  NN   N  G    G  !!!           |
|           W    W  A    A  R    R  N N  N  II  N N  N  G       !!!           |
|           W WW W  AAAAAA  RRRRR   N  N N  II  N  N N  G  GGG   !            |
|           WW  WW  A    A  R   R   N   NN  II  N   NN  G    G                |
|           W    W  A    A  R    R  N    N  II  N    N   GGGG   !!!           |
|                                                                             |
|      The distance between some ions is very small                           |
|      please check the nearest neigbor list in the OUTCAR file               |
|          I HOPE YOU KNOW, WHAT YOU ARE  DOING                               |
|                                                                             |
 ----------------------------------------------------------------------------- 

 POSCAR, INCAR and KPOINTS ok, starting setup
 FFT: planning ...
 WAVECAR not read
 WARNING: random wavefunctions but no delay for mixing, default for NELMDL
 entering main loop
       N       E                     dE             d eps       ncg     rms          rms(c)
DAV:   1     0.190665476838E+04    0.19067E+04   -0.10767E+05 11300   0.128E+03
DAV:   2    -0.416522125591E+03   -0.23232E+04   -0.22612E+04 11300   0.310E+02
DAV:   3    -0.732011921548E+03   -0.31549E+03   -0.29741E+03 16504   0.117E+02
DAV:   4    -0.756170004000E+03   -0.24158E+02   -0.22885E+02 15864   0.312E+01
DAV:   5    -0.757602887491E+03   -0.14329E+01   -0.13848E+01 17144   0.608E+00    0.163E+02
DAV:   6    -0.458923426555E+04   -0.38316E+04   -0.56487E+04 22596   0.535E+02    0.287E+02
DAV:   7    -0.986964763694E+03    0.36023E+04   -0.18901E+04 19552   0.265E+02    0.122E+02
DAV:   8    -0.562594899572E+03    0.42437E+03   -0.55543E+03 16908   0.212E+02    0.802E+01
DAV:   9    -0.451225622344E+03    0.11137E+03   -0.14528E+03 20504   0.726E+01    0.668E+01
DAV:  10    -0.440546041680E+03    0.10680E+02   -0.35430E+02 18648   0.427E+01    0.715E+01
DAV:  11    -0.482459245390E+03   -0.41913E+02   -0.59218E+01 20200   0.249E+01    0.850E+01
DAV:  12    -0.477147263125E+03    0.53120E+01   -0.20333E+01 15824   0.131E+01    0.884E+01
DAV:  13    -0.454906528243E+03    0.22241E+02   -0.48042E+01 18760   0.181E+01    0.817E+01
DAV:  14    -0.436886415080E+03    0.18020E+02   -0.18047E+02 18968   0.355E+01    0.734E+01
DAV:  15    -0.413409647036E+03    0.23477E+02   -0.28880E+02 19016   0.437E+01    0.612E+01
DAV:  16    -0.406024006788E+03    0.73856E+01   -0.10834E+02 17784   0.262E+01    0.530E+01
DAV:  17    -0.403193502479E+03    0.28305E+01   -0.30900E+01 18352   0.135E+01    0.470E+01
DAV:  18    -0.402285168805E+03    0.90833E+00   -0.10342E+01 17856   0.742E+00    0.408E+01
DAV:  19    -0.400868606120E+03    0.14166E+01   -0.30017E+00 16824   0.477E+00    0.345E+01
DAV:  20    -0.399257379029E+03    0.16112E+01   -0.88386E+00 17112   0.748E+00    0.202E+01
DAV:  21    -0.398468669004E+03    0.78871E+00   -0.35474E+00 16896   0.507E+00    0.135E+01
DAV:  22    -0.398073644616E+03    0.39502E+00   -0.22405E+00 17352   0.371E+00    0.908E+00
DAV:  23    -0.397792069632E+03    0.28157E+00   -0.11968E+00 17800   0.280E+00    0.567E+00
DAV:  24    -0.397577808737E+03    0.21426E+00   -0.67517E-01 17288   0.213E+00    0.431E+00
DAV:  25    -0.397448226168E+03    0.12958E+00   -0.79401E-01 18104   0.216E+00    0.342E+00
DAV:  26    -0.397333026495E+03    0.11520E+00   -0.79947E-01 18224   0.205E+00    0.278E+00
DAV:  27    -0.397259646359E+03    0.73380E-01   -0.34630E-01 18064   0.137E+00    0.269E+00
DAV:  28    -0.397241950201E+03    0.17696E-01   -0.13004E-01 16960   0.885E-01    0.183E+00
DAV:  29    -0.397229875666E+03    0.12075E-01   -0.59298E-02 16984   0.556E-01    0.114E+00
DAV:  30    -0.397230423350E+03   -0.54768E-03   -0.35783E-02 16448   0.489E-01    0.117E+00
DAV:  31    -0.397234166694E+03   -0.37433E-02   -0.20903E-02 17296   0.351E-01    0.170E+00
DAV:  32    -0.397233578851E+03    0.58784E-03   -0.61527E-03 16776   0.195E-01    0.177E+00
DAV:  33    -0.397229419100E+03    0.41598E-02   -0.91315E-03 17432   0.223E-01    0.148E+00
DAV:  34    -0.397225623400E+03    0.37957E-02   -0.71078E-03 16304   0.207E-01    0.102E+00
DAV:  35    -0.397224199767E+03    0.14236E-02   -0.32853E-03 16208   0.141E-01    0.667E-01
DAV:  36    -0.397223662456E+03    0.53731E-03   -0.14558E-03 16256   0.908E-02    0.450E-01
DAV:  37    -0.397223256819E+03    0.40564E-03   -0.10094E-03 16504   0.811E-02    0.221E-01
DAV:  38    -0.397223145739E+03    0.11108E-03   -0.50926E-04 18040   0.528E-02    0.158E-01
DAV:  39    -0.397223046808E+03    0.98931E-04   -0.38005E-04 17768   0.494E-02    0.658E-02
DAV:  40    -0.397223032040E+03    0.14768E-04   -0.17575E-04 17152   0.326E-02    0.280E-02
DAV:  41    -0.397223031985E+03    0.54908E-07   -0.54306E-05 15432   0.191E-02    0.242E-02
DAV:  42    -0.397223026514E+03    0.54710E-05   -0.12610E-05  8928   0.114E-02    0.128E-02
DAV:  43    -0.397223025803E+03    0.71064E-06   -0.68508E-06  7584   0.702E-03
   1 F= -.39722303E+03 E0= -.39714497E+03  d E =-.156106E+00
Distance=1.000
 running on   24 total cores
 distrk:  each k-point on    8 cores,    3 groups
 distr:  one band on    8 cores,    1 groups
 using from now: INCAR     
 vasp.5.4.4.18Apr17-6-g9f103f2a35 (build Jun 27 2018 15:25:23) complex          
  
 POSCAR found type information on POSCAR  Ti
 POSCAR found :  1 types and      54 ions
 scaLAPACK will be used

 ----------------------------------------------------------------------------- 
|                                                                             |
|           W    W    AA    RRRRR   N    N  II  N    N   GGGG   !!!           |
|           W    W   A  A   R    R  NN   N  II  NN   N  G    G  !!!           |
|           W    W  A    A  R    R  N N  N  II  N N  N  G       !!!           |
|           W WW W  AAAAAA  RRRRR   N  N N  II  N  N N  G  GGG   !            |
|           WW  WW  A    A  R   R   N   NN  II  N   NN  G    G                |
|           W    W  A    A  R    R  N    N  II  N    N   GGGG   !!!           |
|                                                                             |
|      You have enabled k-point parallelism (KPAR>1).                         |
|      This developmental code was originally  written by Paul Kent at ORNL,  |
|      and carefully double checked in Vienna.                                |
|      GW as well as linear response parallelism added by Martijn Marsman     |
|      and Georg Kresse.                                                      |
|      Carefully verify results versus KPAR=1.                                |
|      Report problems to Paul Kent and Vienna.                               |
|                                                                             |
 ----------------------------------------------------------------------------- 

 LDA part: xc-table for Pade appr. of Perdew
 POSCAR found type information on POSCAR  Ti
 POSCAR found :  1 types and      54 ions
 POSCAR, INCAR and KPOINTS ok, starting setup
 FFT: planning ...
 WAVECAR not read
 entering main loop
       N       E                     dE             d eps       ncg     rms          rms(c)
DAV:   1     0.974940083159E+03    0.97494E+03   -0.62000E+04  1904   0.117E+03
DAV:   2    -0.281911824532E+03   -0.12569E+04   -0.12193E+04  1904   0.259E+02
DAV:   3    -0.469153183766E+03   -0.18724E+03   -0.17797E+03  2976   0.892E+01
DAV:   4    -0.485269527043E+03   -0.16116E+02   -0.15293E+02  3080   0.269E+01
DAV:   5    -0.486226339270E+03   -0.95681E+00   -0.90420E+00  3040   0.508E+00    0.858E+01
DAV:   6    -0.938571995994E+03   -0.45235E+03   -0.54926E+03  3760   0.109E+02    0.128E+02
DAV:   7    -0.425434092385E+03    0.51314E+03   -0.67661E+03  3432   0.156E+02    0.462E+01
DAV:   8    -0.407339458390E+03    0.18095E+02   -0.10171E+03  3120   0.881E+01    0.315E+01
DAV:   9    -0.415139801886E+03   -0.78003E+01   -0.17863E+02  3160   0.256E+01    0.285E+01
DAV:  10    -0.417811042317E+03   -0.26712E+01   -0.15506E+01  3136   0.699E+00    0.310E+01
DAV:  11    -0.417087757287E+03    0.72329E+00   -0.14753E+00  3080   0.178E+00    0.302E+01
DAV:  12    -0.411109444462E+03    0.59783E+01   -0.45429E+00  2616   0.681E+00    0.238E+01
DAV:  13    -0.401082471325E+03    0.10027E+02   -0.23623E+01  2488   0.155E+01    0.949E+00
DAV:  14    -0.400811755152E+03    0.27072E+00   -0.30848E+00  2888   0.504E+00    0.772E+00
DAV:  15    -0.400835274016E+03   -0.23519E-01   -0.24696E-01  2936   0.108E+00    0.681E+00
DAV:  16    -0.400436102816E+03    0.39917E+00   -0.14681E+00  3032   0.270E+00    0.203E+00
DAV:  17    -0.400337708335E+03    0.98394E-01   -0.33144E-01  2904   0.134E+00    0.155E+00
DAV:  18    -0.400248214117E+03    0.89494E-01   -0.23032E-01  3000   0.121E+00    0.787E-01
DAV:  19    -0.400245359571E+03    0.28545E-02   -0.76264E-02  2648   0.882E-01    0.780E-01
DAV:  20    -0.400245334289E+03    0.25282E-04   -0.38950E-02  2992   0.385E-01    0.844E-01
DAV:  21    -0.400238128585E+03    0.72057E-02   -0.30532E-02  2680   0.390E-01    0.417E-01
DAV:  22    -0.400240272366E+03   -0.21438E-02   -0.91258E-03  2912   0.229E-01    0.376E-01
DAV:  23    -0.400239773795E+03    0.49857E-03   -0.11153E-02  3088   0.224E-01    0.600E-02
DAV:  24    -0.400239979339E+03   -0.20554E-03   -0.99449E-04  2744   0.671E-02    0.597E-02
DAV:  25    -0.400239953729E+03    0.25610E-04   -0.52957E-04  2800   0.560E-02    0.296E-02
DAV:  26    -0.400239961877E+03   -0.81480E-05   -0.72401E-05  2560   0.225E-02    0.317E-02
DAV:  27    -0.400239952928E+03    0.89494E-05   -0.11079E-05  1632   0.870E-03    0.235E-02
DAV:  28    -0.400239946049E+03    0.68784E-05   -0.26714E-05  2160   0.740E-03    0.125E-02
DAV:  29    -0.400239945709E+03    0.33991E-06   -0.23984E-06  1264   0.491E-03
   1 F= -.40023995E+03 E0= -.40018545E+03  d E =-.108989E+00
 running on   24 total cores
 distrk:  each k-point on    8 cores,    3 groups
 distr:  one band on    8 cores,    1 groups
 using from now: INCAR     
 vasp.5.4.4.18Apr17-6-g9f103f2a35 (build Jun 27 2018 15:25:23) complex          
  
 POSCAR found type information on POSCAR  Ti
 POSCAR found :  1 types and      36 ions
 scaLAPACK will be used

 ----------------------------------------------------------------------------- 
|                                                                             |
|           W    W    AA    RRRRR   N    N  II  N    N   GGGG   !!!           |
|           W    W   A  A   R    R  NN   N  II  NN   N  G    G  !!!           |
|           W    W  A    A  R    R  N N  N  II  N N  N  G       !!!           |
|           W WW W  AAAAAA  RRRRR   N  N N  II  N  N N  G  GGG   !            |
|           WW  WW  A    A  R   R   N   NN  II  N   NN  G    G                |
|           W    W  A    A  R    R  N    N  II  N    N   GGGG   !!!           |
|                                                                             |
|      You have enabled k-point parallelism (KPAR>1).                         |
|      This developmental code was originally  written by Paul Kent at ORNL,  |
|      and carefully double checked in Vienna.                                |
|      GW as well as linear response parallelism added by Martijn Marsman     |
|      and Georg Kresse.                                                      |
|      Carefully verify results versus KPAR=1.                                |
|      Report problems to Paul Kent and Vienna.                               |
|                                                                             |
 ----------------------------------------------------------------------------- 

 LDA part: xc-table for Pade appr. of Perdew
 POSCAR found type information on POSCAR  Ti
 POSCAR found :  1 types and      36 ions
 POSCAR, INCAR and KPOINTS ok, starting setup
 FFT: planning ...
 WAVECAR not read
 WARNING: random wavefunctions but no delay for mixing, default for NELMDL
 entering main loop
       N       E                     dE             d eps       ncg     rms          rms(c)
DAV:   1     0.722632849608E+03    0.72263E+03   -0.40887E+04  1274   0.110E+03
DAV:   2    -0.184322633543E+03   -0.90696E+03   -0.87286E+03  1274   0.246E+02
DAV:   3    -0.320341840270E+03   -0.13602E+03   -0.12764E+03  1948   0.875E+01
DAV:   4    -0.330608394421E+03   -0.10267E+02   -0.95908E+01  1892   0.288E+01
DAV:   5    -0.331137060502E+03   -0.52867E+00   -0.51706E+00  2012   0.585E+00    0.782E+01
DAV:   6    -0.500977793351E+03   -0.16984E+03   -0.29625E+03  2417   0.100E+02    0.995E+01
DAV:   7    -0.282971837743E+03    0.21801E+03   -0.38721E+03  2231   0.177E+02    0.335E+01
DAV:   8    -0.285404780840E+03   -0.24329E+01   -0.57870E+02  1863   0.783E+01    0.387E+01
DAV:   9    -0.267942913238E+03    0.17462E+02   -0.98537E+01  2004   0.329E+01    0.285E+01
DAV:  10    -0.265546567375E+03    0.23963E+01   -0.78031E+00  2044   0.736E+00    0.260E+01
DAV:  11    -0.263835848048E+03    0.17107E+01   -0.15518E+00  2137   0.350E+00    0.233E+01
DAV:  12    -0.261205795408E+03    0.26301E+01   -0.10253E+01  1929   0.969E+00    0.189E+01
DAV:  13    -0.256309120470E+03    0.48967E+01   -0.22810E+01  2092   0.132E+01    0.649E+00
DAV:  14    -0.256053703934E+03    0.25542E+00   -0.25226E+00  2092   0.396E+00    0.432E+00
DAV:  15    -0.256183083828E+03   -0.12938E+00   -0.67472E-01  2012   0.234E+00    0.492E+00
DAV:  16    -0.255875529101E+03    0.30755E+00   -0.20822E+00  2060   0.367E+00    0.251E+00
DAV:  17    -0.255796780306E+03    0.78749E-01   -0.48462E-01  1996   0.214E+00    0.100E+00
DAV:  18    -0.255797290988E+03   -0.51068E-03   -0.16746E-01  1996   0.129E+00    0.891E-01
DAV:  19    -0.255830317616E+03   -0.33027E-01   -0.44474E-01  1972   0.192E+00    0.171E+00
DAV:  20    -0.255803122098E+03    0.27196E-01   -0.18765E-01  1956   0.116E+00    0.706E-01
DAV:  21    -0.255793455384E+03    0.96667E-02   -0.28045E-02  1868   0.645E-01    0.222E-01
DAV:  22    -0.255793388655E+03    0.66729E-04   -0.64261E-03  2164   0.220E-01    0.108E-01
DAV:  23    -0.255794743397E+03   -0.13547E-02   -0.26660E-03  1980   0.172E-01    0.993E-02
DAV:  24    -0.255795510507E+03   -0.76711E-03   -0.16982E-03  1876   0.110E-01    0.840E-02
DAV:  25    -0.255796122012E+03   -0.61151E-03   -0.39547E-04  2092   0.445E-02    0.604E-02
DAV:  26    -0.255796916287E+03   -0.79427E-03   -0.96676E-04  2004   0.773E-02    0.576E-02
DAV:  27    -0.255797112560E+03   -0.19627E-03   -0.17642E-04  1844   0.353E-02    0.190E-02
DAV:  28    -0.255797214570E+03   -0.10201E-03   -0.85497E-05  1924   0.278E-02    0.986E-03
DAV:  29    -0.255797251850E+03   -0.37280E-04   -0.82646E-06   988   0.904E-03    0.648E-03
DAV:  30    -0.255797256265E+03   -0.44146E-05   -0.30802E-06   868   0.498E-03
   1 F= -.25579726E+03 E0= -.25572847E+03  d E =-.137571E+00
 running on   24 total cores
 distrk:  each k-point on    8 cores,    3 groups
 distr:  one band on    8 cores,    1 groups
 using from now: INCAR     
 vasp.5.4.4.18Apr17-6-g9f103f2a35 (build Jun 27 2018 15:25:23) complex          
  
 POSCAR found type information on POSCAR  Ti
 POSCAR found :  1 types and      90 ions
 scaLAPACK will be used

 ----------------------------------------------------------------------------- 
|                                                                             |
|           W    W    AA    RRRRR   N    N  II  N    N   GGGG   !!!           |
|           W    W   A  A   R    R  NN   N  II  NN   N  G    G  !!!           |
|           W    W  A    A  R    R  N N  N  II  N N  N  G       !!!           |
|           W WW W  AAAAAA  RRRRR   N  N N  II  N  N N  G  GGG   !            |
|           WW  WW  A    A  R   R   N   NN  II  N   NN  G    G                |
|           W    W  A    A  R    R  N    N  II  N    N   GGGG   !!!           |
|                                                                             |
|      You have enabled k-point parallelism (KPAR>1).                         |
|      This developmental code was originally  written by Paul Kent at ORNL,  |
|      and carefully double checked in Vienna.                                |
|      GW as well as linear response parallelism added by Martijn Marsman     |
|      and Georg Kresse.                                                      |
|      Carefully verify results versus KPAR=1.                                |
|      Report problems to Paul Kent and Vienna.                               |
|                                                                             |
 ----------------------------------------------------------------------------- 

 LDA part: xc-table for Pade appr. of Perdew
 POSCAR found type information on POSCAR  Ti
 POSCAR found :  1 types and      90 ions

 ----------------------------------------------------------------------------- 
|                                                                             |
|           W    W    AA    RRRRR   N    N  II  N    N   GGGG   !!!           |
|           W    W   A  A   R    R  NN   N  II  NN   N  G    G  !!!           |
|           W    W  A    A  R    R  N N  N  II  N N  N  G       !!!           |
|           W WW W  AAAAAA  RRRRR   N  N N  II  N  N N  G  GGG   !            |
|           WW  WW  A    A  R   R   N   NN  II  N   NN  G    G                |
|           W    W  A    A  R    R  N    N  II  N    N   GGGG   !!!           |
|                                                                             |
|      The distance between some ions is very small                           |
|      please check the nearest neigbor list in the OUTCAR file               |
|          I HOPE YOU KNOW, WHAT YOU ARE  DOING                               |
|                                                                             |
 ----------------------------------------------------------------------------- 

 POSCAR, INCAR and KPOINTS ok, starting setup
 FFT: planning ...
 WAVECAR not read
 WARNING: random wavefunctions but no delay for mixing, default for NELMDL
 entering main loop
       N       E                     dE             d eps       ncg     rms          rms(c)
DAV:   1     0.168281907433E+04    0.16828E+04   -0.10512E+05 11300   0.126E+03
DAV:   2    -0.470330656310E+03   -0.21531E+04   -0.20928E+04 11300   0.289E+02
DAV:   3    -0.775657031227E+03   -0.30533E+03   -0.28621E+03 16248   0.107E+02
DAV:   4    -0.799791620005E+03   -0.24135E+02   -0.22559E+02 16312   0.298E+01
DAV:   5    -0.800981743192E+03   -0.11901E+01   -0.11413E+01 16616   0.522E+00    0.130E+02
DAV:   6    -0.327887406638E+04   -0.24779E+04   -0.29302E+04 22600   0.346E+02    0.220E+02
DAV:   7    -0.913722067063E+03    0.23652E+04   -0.19222E+04 20700   0.220E+02    0.956E+01
DAV:   8    -0.657575427763E+03    0.25615E+03   -0.43300E+03 17288   0.175E+02    0.611E+01
DAV:   9    -0.676210576650E+03   -0.18635E+02   -0.11245E+03 19832   0.711E+01    0.586E+01
DAV:  10    -0.677105832295E+03   -0.89526E+00   -0.35804E+02 20782   0.571E+01    0.578E+01
DAV:  11    -0.643422997908E+03    0.33683E+02   -0.20367E+02 20168   0.427E+01    0.455E+01
DAV:  12    -0.634659674877E+03    0.87633E+01   -0.32116E+02 18656   0.503E+01    0.317E+01
DAV:  13    -0.619224315505E+03    0.15435E+02   -0.95007E+01 18664   0.254E+01    0.212E+01
DAV:  14    -0.616605246081E+03    0.26191E+01   -0.15512E+01 17768   0.948E+00    0.161E+01
DAV:  15    -0.615711444757E+03    0.89380E+00   -0.84353E+00 17512   0.695E+00    0.131E+01
DAV:  16    -0.616023322902E+03   -0.31188E+00   -0.16679E+01 17632   0.912E+00    0.125E+01
DAV:  17    -0.614765523126E+03    0.12578E+01   -0.12696E+01 17536   0.815E+00    0.876E+00
DAV:  18    -0.614028421195E+03    0.73710E+00   -0.45603E+00 18088   0.488E+00    0.537E+00
DAV:  19    -0.613727756499E+03    0.30066E+00   -0.21148E+00 17648   0.342E+00    0.307E+00
DAV:  20    -0.613730364401E+03   -0.26079E-02   -0.10686E+00 17360   0.253E+00    0.297E+00
DAV:  21    -0.613707676544E+03    0.22688E-01   -0.66720E-01 17384   0.190E+00    0.246E+00
DAV:  22    -0.613649562913E+03    0.58114E-01   -0.35538E-01 17752   0.134E+00    0.169E+00
DAV:  23    -0.613619310568E+03    0.30252E-01   -0.17394E-01 17896   0.103E+00    0.890E-01
DAV:  24    -0.613617621535E+03    0.16890E-02   -0.96850E-02 17608   0.806E-01    0.809E-01
DAV:  25    -0.613615325363E+03    0.22962E-02   -0.43334E-02 17432   0.572E-01    0.655E-01
DAV:  26    -0.613612676038E+03    0.26493E-02   -0.22126E-02 17328   0.336E-01    0.410E-01
DAV:  27    -0.613611598744E+03    0.10773E-02   -0.14379E-02 17680   0.279E-01    0.219E-01
DAV:  28    -0.613611415670E+03    0.18307E-03   -0.70214E-03 17152   0.202E-01    0.156E-01
DAV:  29    -0.613611158604E+03    0.25707E-03   -0.29310E-03 17192   0.130E-01    0.106E-01
DAV:  30    -0.613611039928E+03    0.11868E-03   -0.64370E-04 17392   0.624E-02    0.521E-02
DAV:  31    -0.613611011344E+03    0.28584E-04   -0.27193E-04 17680   0.394E-02    0.302E-02
DAV:  32    -0.613611002915E+03    0.84295E-05   -0.12502E-04 17224   0.259E-02    0.209E-02
DAV:  33    -0.613611000868E+03    0.20469E-05   -0.72528E-05 16224   0.192E-02    0.159E-02
DAV:  34    -0.613611001213E+03   -0.34500E-06   -0.30744E-05 11944   0.128E-02
   1 F= -.61361100E+03 E0= -.61352703E+03  d E =-.167952E+00
Distance=1.500
 running on   24 total cores
 distrk:  each k-point on    8 cores,    3 groups
 distr:  one band on    8 cores,    1 groups
 using from now: INCAR     
 vasp.5.4.4.18Apr17-6-g9f103f2a35 (build Jun 27 2018 15:25:23) complex          
  
 POSCAR found type information on POSCAR  Ti
 POSCAR found :  1 types and      54 ions
 scaLAPACK will be used

 ----------------------------------------------------------------------------- 
|                                                                             |
|           W    W    AA    RRRRR   N    N  II  N    N   GGGG   !!!           |
|           W    W   A  A   R    R  NN   N  II  NN   N  G    G  !!!           |
|           W    W  A    A  R    R  N N  N  II  N N  N  G       !!!           |
|           W WW W  AAAAAA  RRRRR   N  N N  II  N  N N  G  GGG   !            |
|           WW  WW  A    A  R   R   N   NN  II  N   NN  G    G                |
|           W    W  A    A  R    R  N    N  II  N    N   GGGG   !!!           |
|                                                                             |
|      You have enabled k-point parallelism (KPAR>1).                         |
|      This developmental code was originally  written by Paul Kent at ORNL,  |
|      and carefully double checked in Vienna.                                |
|      GW as well as linear response parallelism added by Martijn Marsman     |
|      and Georg Kresse.                                                      |
|      Carefully verify results versus KPAR=1.                                |
|      Report problems to Paul Kent and Vienna.                               |
|                                                                             |
 ----------------------------------------------------------------------------- 

 LDA part: xc-table for Pade appr. of Perdew
 POSCAR found type information on POSCAR  Ti
 POSCAR found :  1 types and      54 ions
 POSCAR, INCAR and KPOINTS ok, starting setup
 FFT: planning ...
 WAVECAR not read
 entering main loop
       N       E                     dE             d eps       ncg     rms          rms(c)
DAV:   1     0.993333183928E+03    0.99333E+03   -0.62060E+04  1904   0.116E+03
DAV:   2    -0.280429683242E+03   -0.12738E+04   -0.12348E+04  1904   0.257E+02
DAV:   3    -0.468690165384E+03   -0.18826E+03   -0.17913E+03  2984   0.884E+01
DAV:   4    -0.485233260178E+03   -0.16543E+02   -0.15702E+02  3072   0.272E+01
DAV:   5    -0.486221459475E+03   -0.98820E+00   -0.93849E+00  3048   0.530E+00    0.858E+01
DAV:   6    -0.923747890928E+03   -0.43753E+03   -0.53501E+03  3776   0.108E+02    0.127E+02
DAV:   7    -0.433392713557E+03    0.49036E+03   -0.69155E+03  3408   0.157E+02    0.473E+01
DAV:   8    -0.407712019210E+03    0.25681E+02   -0.10259E+03  3120   0.898E+01    0.321E+01
DAV:   9    -0.415227476954E+03   -0.75155E+01   -0.18393E+02  3152   0.263E+01    0.288E+01
DAV:  10    -0.417570739967E+03   -0.23433E+01   -0.16906E+01  3136   0.734E+00    0.309E+01
DAV:  11    -0.417001606308E+03    0.56913E+00   -0.18861E+00  3112   0.193E+00    0.302E+01
DAV:  12    -0.413371389211E+03    0.36302E+01   -0.32981E+00  2984   0.533E+00    0.265E+01
DAV:  13    -0.403514830508E+03    0.98566E+01   -0.15161E+01  2440   0.126E+01    0.161E+01
DAV:  14    -0.402137820758E+03    0.13770E+01   -0.76028E+00  2976   0.758E+00    0.121E+01
DAV:  15    -0.401775830263E+03    0.36199E+00   -0.36353E-01  2984   0.141E+00    0.109E+01
DAV:  16    -0.400858672988E+03    0.91716E+00   -0.11777E+00  2968   0.262E+00    0.610E+00
DAV:  17    -0.400419832491E+03    0.43884E+00   -0.16194E+00  3008   0.219E+00    0.273E+00
DAV:  18    -0.400399922285E+03    0.19910E-01   -0.16691E-01  2592   0.123E+00    0.260E+00
DAV:  19    -0.400350519025E+03    0.49403E-01   -0.10838E-01  3096   0.756E-01    0.237E+00
DAV:  20    -0.400235902591E+03    0.11462E+00   -0.36130E-01  2608   0.168E+00    0.390E-01
DAV:  21    -0.400235710464E+03    0.19213E-03   -0.37965E-02  2928   0.446E-01    0.276E-01
DAV:  22    -0.400235790547E+03   -0.80083E-04   -0.18613E-02  2728   0.327E-01    0.199E-01
DAV:  23    -0.400239670309E+03   -0.38798E-02   -0.82229E-03  3120   0.212E-01    0.486E-01
DAV:  24    -0.400238668020E+03    0.10023E-02   -0.19050E-02  3080   0.277E-01    0.125E-01
DAV:  25    -0.400238957126E+03   -0.28911E-03   -0.15484E-03  2520   0.116E-01    0.104E-01
DAV:  26    -0.400238774573E+03    0.18255E-03   -0.40999E-04  3056   0.549E-02    0.584E-02
DAV:  27    -0.400238748153E+03    0.26421E-04   -0.28887E-04  2984   0.317E-02    0.333E-02
DAV:  28    -0.400238748232E+03   -0.79192E-07   -0.46920E-05  2488   0.156E-02
   1 F= -.40023875E+03 E0= -.40018418E+03  d E =-.109129E+00
 running on   24 total cores
 distrk:  each k-point on    8 cores,    3 groups
 distr:  one band on    8 cores,    1 groups
 using from now: INCAR     
 vasp.5.4.4.18Apr17-6-g9f103f2a35 (build Jun 27 2018 15:25:23) complex          
  
 POSCAR found type information on POSCAR  Ti
 POSCAR found :  1 types and      36 ions
 scaLAPACK will be used

 ----------------------------------------------------------------------------- 
|                                                                             |
|           W    W    AA    RRRRR   N    N  II  N    N   GGGG   !!!           |
|           W    W   A  A   R    R  NN   N  II  NN   N  G    G  !!!           |
|           W    W  A    A  R    R  N N  N  II  N N  N  G       !!!           |
|           W WW W  AAAAAA  RRRRR   N  N N  II  N  N N  G  GGG   !            |
|           WW  WW  A    A  R   R   N   NN  II  N   NN  G    G                |
|           W    W  A    A  R    R  N    N  II  N    N   GGGG   !!!           |
|                                                                             |
|      You have enabled k-point parallelism (KPAR>1).                         |
|      This developmental code was originally  written by Paul Kent at ORNL,  |
|      and carefully double checked in Vienna.                                |
|      GW as well as linear response parallelism added by Martijn Marsman     |
|      and Georg Kresse.                                                      |
|      Carefully verify results versus KPAR=1.                                |
|      Report problems to Paul Kent and Vienna.                               |
|                                                                             |
 ----------------------------------------------------------------------------- 

 LDA part: xc-table for Pade appr. of Perdew
 POSCAR found type information on POSCAR  Ti
 POSCAR found :  1 types and      36 ions
 POSCAR, INCAR and KPOINTS ok, starting setup
 FFT: planning ...
 WAVECAR not read
 WARNING: random wavefunctions but no delay for mixing, default for NELMDL
 entering main loop
       N       E                     dE             d eps       ncg     rms          rms(c)
DAV:   1     0.722573228901E+03    0.72257E+03   -0.40571E+04  1274   0.108E+03
DAV:   2    -0.186082035473E+03   -0.90866E+03   -0.87345E+03  1277   0.245E+02
DAV:   3    -0.320279209827E+03   -0.13420E+03   -0.12618E+03  1948   0.872E+01
DAV:   4    -0.330612503907E+03   -0.10333E+02   -0.96272E+01  1924   0.284E+01
DAV:   5    -0.331136811727E+03   -0.52431E+00   -0.51099E+00  1996   0.587E+00    0.782E+01
DAV:   6    -0.497886043363E+03   -0.16675E+03   -0.29129E+03  2391   0.997E+01    0.992E+01
DAV:   7    -0.285324000277E+03    0.21256E+03   -0.39163E+03  2223   0.177E+02    0.340E+01
DAV:   8    -0.284647966340E+03    0.67603E+00   -0.57461E+02  1863   0.785E+01    0.383E+01
DAV:   9    -0.268348956757E+03    0.16299E+02   -0.88554E+01  2012   0.309E+01    0.288E+01
DAV:  10    -0.266278144867E+03    0.20708E+01   -0.69007E+00  2052   0.689E+00    0.267E+01
DAV:  11    -0.264656533660E+03    0.16216E+01   -0.12747E+00  2161   0.315E+00    0.243E+01
DAV:  12    -0.261354461751E+03    0.33021E+01   -0.11240E+01  1905   0.102E+01    0.191E+01
DAV:  13    -0.256305469975E+03    0.50490E+01   -0.24501E+01  2092   0.135E+01    0.668E+00
DAV:  14    -0.256060138334E+03    0.24533E+00   -0.24536E+00  2068   0.404E+00    0.455E+00
DAV:  15    -0.256208264638E+03   -0.14813E+00   -0.83291E-01  2028   0.253E+00    0.520E+00
DAV:  16    -0.255912791140E+03    0.29547E+00   -0.27593E+00  2068   0.410E+00    0.303E+00
DAV:  17    -0.255790167951E+03    0.12262E+00   -0.55623E-01  2036   0.237E+00    0.114E+00
DAV:  18    -0.255794157890E+03   -0.39899E-02   -0.25096E-01  2060   0.152E+00    0.932E-01
DAV:  19    -0.255822117532E+03   -0.27960E-01   -0.37736E-01  1924   0.172E+00    0.157E+00
DAV:  20    -0.255804367609E+03    0.17750E-01   -0.13030E-01  2004   0.943E-01    0.751E-01
DAV:  21    -0.255795269822E+03    0.90978E-02   -0.44668E-02  1900   0.744E-01    0.235E-01
DAV:  22    -0.255795428118E+03   -0.15830E-03   -0.63559E-03  2100   0.189E-01    0.162E-01
DAV:  23    -0.255795405450E+03    0.22668E-04   -0.17540E-03  1804   0.123E-01    0.969E-02
DAV:  24    -0.255795780222E+03   -0.37477E-03   -0.13572E-03  1972   0.105E-01    0.567E-02
DAV:  25    -0.255796205353E+03   -0.42513E-03   -0.38659E-04  1956   0.563E-02    0.328E-02
DAV:  26    -0.255796569845E+03   -0.36449E-03   -0.15245E-04  1876   0.305E-02    0.296E-02
DAV:  27    -0.255796870318E+03   -0.30047E-03   -0.11191E-04  1876   0.268E-02    0.139E-02
DAV:  28    -0.255796966826E+03   -0.96509E-04   -0.63808E-06  1012   0.868E-03    0.825E-03
DAV:  29    -0.255797041121E+03   -0.74294E-04   -0.11047E-05  1156   0.798E-03    0.655E-03
DAV:  30    -0.255797055329E+03   -0.14208E-04   -0.23954E-06   868   0.577E-03    0.300E-03
DAV:  31    -0.255797061729E+03   -0.64001E-05   -0.35394E-06   868   0.546E-03    0.522E-03
DAV:  32    -0.255797066360E+03   -0.46317E-05   -0.17003E-06   868   0.441E-03
   1 F= -.25579707E+03 E0= -.25572829E+03  d E =-.137551E+00
 running on   24 total cores
 distrk:  each k-point on    8 cores,    3 groups
 distr:  one band on    8 cores,    1 groups
 using from now: INCAR     
 vasp.5.4.4.18Apr17-6-g9f103f2a35 (build Jun 27 2018 15:25:23) complex          
  
 POSCAR found type information on POSCAR  Ti
 POSCAR found :  1 types and      90 ions
 scaLAPACK will be used

 ----------------------------------------------------------------------------- 
|                                                                             |
|           W    W    AA    RRRRR   N    N  II  N    N   GGGG   !!!           |
|           W    W   A  A   R    R  NN   N  II  NN   N  G    G  !!!           |
|           W    W  A    A  R    R  N N  N  II  N N  N  G       !!!           |
|           W WW W  AAAAAA  RRRRR   N  N N  II  N  N N  G  GGG   !            |
|           WW  WW  A    A  R   R   N   NN  II  N   NN  G    G                |
|           W    W  A    A  R    R  N    N  II  N    N   GGGG   !!!           |
|                                                                             |
|      You have enabled k-point parallelism (KPAR>1).                         |
|      This developmental code was originally  written by Paul Kent at ORNL,  |
|      and carefully double checked in Vienna.                                |
|      GW as well as linear response parallelism added by Martijn Marsman     |
|      and Georg Kresse.                                                      |
|      Carefully verify results versus KPAR=1.                                |
|      Report problems to Paul Kent and Vienna.                               |
|                                                                             |
 ----------------------------------------------------------------------------- 

 LDA part: xc-table for Pade appr. of Perdew
 POSCAR found type information on POSCAR  Ti
 POSCAR found :  1 types and      90 ions

 ----------------------------------------------------------------------------- 
|                                                                             |
|           W    W    AA    RRRRR   N    N  II  N    N   GGGG   !!!           |
|           W    W   A  A   R    R  NN   N  II  NN   N  G    G  !!!           |
|           W    W  A    A  R    R  N N  N  II  N N  N  G       !!!           |
|           W WW W  AAAAAA  RRRRR   N  N N  II  N  N N  G  GGG   !            |
|           WW  WW  A    A  R   R   N   NN  II  N   NN  G    G                |
|           W    W  A    A  R    R  N    N  II  N    N   GGGG   !!!           |
|                                                                             |
|      The distance between some ions is very small                           |
|      please check the nearest neigbor list in the OUTCAR file               |
|          I HOPE YOU KNOW, WHAT YOU ARE  DOING                               |
|                                                                             |
 ----------------------------------------------------------------------------- 

 POSCAR, INCAR and KPOINTS ok, starting setup
 FFT: planning ...
 WAVECAR not read
 WARNING: random wavefunctions but no delay for mixing, default for NELMDL
 entering main loop
       N       E                     dE             d eps       ncg     rms          rms(c)
DAV:   1     0.158289203519E+04    0.15829E+04   -0.10365E+05 11300   0.125E+03
DAV:   2    -0.463288825003E+03   -0.20462E+04   -0.19887E+04 11300   0.280E+02
DAV:   3    -0.766450018072E+03   -0.30316E+03   -0.28337E+03 16552   0.988E+01
DAV:   4    -0.790898043906E+03   -0.24448E+02   -0.22969E+02 16480   0.295E+01
DAV:   5    -0.791870665970E+03   -0.97262E+00   -0.94510E+00 16088   0.470E+00    0.120E+02
DAV:   6    -0.218433471804E+04   -0.13925E+04   -0.13721E+04 22330   0.197E+02    0.169E+02
DAV:   7    -0.991262159104E+03    0.11931E+04   -0.18688E+04 20764   0.186E+02    0.971E+01
DAV:   8    -0.699187584069E+03    0.29207E+03   -0.36444E+03 17614   0.152E+02    0.634E+01
DAV:   9    -0.757839113963E+03   -0.58652E+02   -0.14200E+03 20472   0.838E+01    0.578E+01
DAV:  10    -0.733091604583E+03    0.24748E+02   -0.50155E+02 19990   0.566E+01    0.532E+01
DAV:  11    -0.700406799588E+03    0.32685E+02   -0.13843E+02 18952   0.281E+01    0.425E+01
DAV:  12    -0.698468247238E+03    0.19386E+01   -0.16891E+01 17568   0.804E+00    0.408E+01
DAV:  13    -0.696465354920E+03    0.20029E+01   -0.16370E+00 17144   0.272E+00    0.383E+01
DAV:  14    -0.690001422502E+03    0.64639E+01   -0.10293E+01 17600   0.718E+00    0.307E+01
DAV:  15    -0.685523097291E+03    0.44783E+01   -0.92357E+00 17800   0.724E+00    0.251E+01
DAV:  16    -0.681847734270E+03    0.36754E+01   -0.46291E+00 15840   0.565E+00    0.194E+01
DAV:  17    -0.678455338376E+03    0.33924E+01   -0.94068E+00 16880   0.714E+00    0.128E+01
DAV:  18    -0.676371560425E+03    0.20838E+01   -0.63607E+00 16216   0.574E+00    0.715E+00
DAV:  19    -0.675666347111E+03    0.70521E+00   -0.27221E+00 15904   0.398E+00    0.443E+00
DAV:  20    -0.675414150950E+03    0.25220E+00   -0.16044E+00 16592   0.297E+00    0.281E+00
DAV:  21    -0.675381649362E+03    0.32502E-01   -0.67999E-01 16928   0.184E+00    0.242E+00
DAV:  22    -0.675363334830E+03    0.18315E-01   -0.33438E-01 16944   0.126E+00    0.211E+00
DAV:  23    -0.675333830068E+03    0.29505E-01   -0.24079E-01 17112   0.108E+00    0.150E+00
DAV:  24    -0.675316048872E+03    0.17781E-01   -0.24590E-01 15192   0.128E+00    0.991E-01
DAV:  25    -0.675312315127E+03    0.37337E-02   -0.56548E-02 16640   0.583E-01    0.812E-01
DAV:  26    -0.675308838232E+03    0.34769E-02   -0.24837E-02 16776   0.367E-01    0.552E-01
DAV:  27    -0.675307091334E+03    0.17469E-02   -0.12441E-02 16784   0.263E-01    0.285E-01
DAV:  28    -0.675306911783E+03    0.17955E-03   -0.42972E-03 17440   0.142E-01    0.200E-01
DAV:  29    -0.675306696264E+03    0.21552E-03   -0.13192E-03 17232   0.788E-02    0.122E-01
DAV:  30    -0.675306627312E+03    0.68951E-04   -0.78560E-04 17440   0.600E-02    0.946E-02
DAV:  31    -0.675306572945E+03    0.54367E-04   -0.49047E-04 17280   0.487E-02    0.631E-02
DAV:  32    -0.675306557002E+03    0.15943E-04   -0.26627E-04 17096   0.356E-02    0.386E-02
DAV:  33    -0.675306550583E+03    0.64188E-05   -0.82944E-05 16320   0.205E-02    0.286E-02
DAV:  34    -0.675306534805E+03    0.15778E-04   -0.71591E-05 14936   0.202E-02    0.193E-02
DAV:  35    -0.675306535655E+03   -0.85001E-06   -0.20335E-05  9944   0.119E-02
   1 F= -.67530654E+03 E0= -.67521536E+03  d E =-.182349E+00
Distance=2.000
 running on   24 total cores
 distrk:  each k-point on    8 cores,    3 groups
 distr:  one band on    8 cores,    1 groups
 using from now: INCAR     
 vasp.5.4.4.18Apr17-6-g9f103f2a35 (build Jun 27 2018 15:25:23) complex          
  
 POSCAR found type information on POSCAR  Ti
 POSCAR found :  1 types and      54 ions
 scaLAPACK will be used

 ----------------------------------------------------------------------------- 
|                                                                             |
|           W    W    AA    RRRRR   N    N  II  N    N   GGGG   !!!           |
|           W    W   A  A   R    R  NN   N  II  NN   N  G    G  !!!           |
|           W    W  A    A  R    R  N N  N  II  N N  N  G       !!!           |
|           W WW W  AAAAAA  RRRRR   N  N N  II  N  N N  G  GGG   !            |
|           WW  WW  A    A  R   R   N   NN  II  N   NN  G    G                |
|           W    W  A    A  R    R  N    N  II  N    N   GGGG   !!!           |
|                                                                             |
|      You have enabled k-point parallelism (KPAR>1).                         |
|      This developmental code was originally  written by Paul Kent at ORNL,  |
|      and carefully double checked in Vienna.                                |
|      GW as well as linear response parallelism added by Martijn Marsman     |
|      and Georg Kresse.                                                      |
|      Carefully verify results versus KPAR=1.                                |
|      Report problems to Paul Kent and Vienna.                               |
|                                                                             |
 ----------------------------------------------------------------------------- 

 LDA part: xc-table for Pade appr. of Perdew
 POSCAR found type information on POSCAR  Ti
 POSCAR found :  1 types and      54 ions
 POSCAR, INCAR and KPOINTS ok, starting setup
 FFT: planning ...
 WAVECAR not read
 entering main loop
       N       E                     dE             d eps       ncg     rms          rms(c)
DAV:   1     0.100559328734E+04    0.10056E+04   -0.62040E+04  1904   0.115E+03
DAV:   2    -0.279477955813E+03   -0.12851E+04   -0.12458E+04  1904   0.256E+02
DAV:   3    -0.468520058017E+03   -0.18904E+03   -0.17985E+03  3008   0.878E+01
DAV:   4    -0.485187811220E+03   -0.16668E+02   -0.15877E+02  3080   0.273E+01
DAV:   5    -0.486206988770E+03   -0.10192E+01   -0.96367E+00  3056   0.544E+00    0.858E+01
DAV:   6    -0.924570081969E+03   -0.43836E+03   -0.53263E+03  3768   0.108E+02    0.127E+02
DAV:   7    -0.443621508837E+03    0.48095E+03   -0.72142E+03  3416   0.159E+02    0.491E+01
DAV:   8    -0.408253168760E+03    0.35368E+02   -0.10620E+03  3112   0.936E+01    0.330E+01
DAV:   9    -0.415782916953E+03   -0.75297E+01   -0.20601E+02  3168   0.284E+01    0.295E+01
DAV:  10    -0.417660247427E+03   -0.18773E+01   -0.20511E+01  3184   0.815E+00    0.310E+01
DAV:  11    -0.417776997323E+03   -0.11675E+00   -0.17161E+00  3136   0.170E+00    0.311E+01
DAV:  12    -0.420392213151E+03   -0.26152E+01   -0.32574E+00  3024   0.445E+00    0.336E+01
DAV:  13    -0.417676451730E+03    0.27158E+01   -0.64201E-01  2656   0.245E+00    0.303E+01
DAV:  14    -0.419379780883E+03   -0.17033E+01   -0.27794E-01  3024   0.129E+00    0.319E+01
DAV:  15    -0.411932981974E+03    0.74468E+01   -0.40543E+01  3112   0.138E+01    0.225E+01
DAV:  16    -0.406571073363E+03    0.53619E+01   -0.90583E+00  2760   0.881E+00    0.161E+01
DAV:  17    -0.419703186674E+03   -0.13132E+02   -0.62488E+01  2848   0.174E+01    0.323E+01
DAV:  18    -0.424866682855E+03   -0.51635E+01   -0.12542E+01  3016   0.748E+00    0.380E+01
DAV:  19    -0.427151163219E+03   -0.22845E+01   -0.12754E+00  3312   0.205E+00    0.395E+01
DAV:  20    -0.422725640020E+03    0.44255E+01   -0.10284E+00  2848   0.188E+00    0.367E+01
DAV:  21    -0.433636968828E+03   -0.10911E+02   -0.32204E+00  2712   0.270E+00    0.415E+01
DAV:  22    -0.441270319366E+03   -0.76334E+01   -0.20370E+00  2928   0.223E+00    0.445E+01
DAV:  23    -0.451028820577E+03   -0.97585E+01   -0.43617E+00  2504   0.443E+00    0.407E+01
DAV:  24    -0.454447983016E+03   -0.34192E+01   -0.22573E+00  3056   0.388E+00    0.344E+01
DAV:  25    -0.423852962242E+03    0.30595E+02   -0.16670E+01  2880   0.572E+00    0.231E+01
DAV:  26    -0.423163736278E+03    0.68923E+00   -0.14790E+00  2888   0.286E+00    0.227E+01
DAV:  27    -0.423162316816E+03    0.14195E-02   -0.10786E-01  3368   0.517E-01    0.226E+01
DAV:  28    -0.422569724454E+03    0.59259E+00   -0.42885E-02  3136   0.364E-01    0.223E+01
DAV:  29    -0.412613546391E+03    0.99562E+01   -0.43229E+00  2736   0.230E+00    0.169E+01
DAV:  30    -0.412971788855E+03   -0.35824E+00   -0.52950E-01  2608   0.185E+00    0.171E+01
DAV:  31    -0.413968294321E+03   -0.99651E+00   -0.12120E+00  3080   0.246E+00    0.188E+01
DAV:  32    -0.414336426827E+03   -0.36813E+00   -0.29980E-01  3176   0.110E+00    0.194E+01
DAV:  33    -0.414344639798E+03   -0.82130E-02   -0.17651E-02  2504   0.356E-01    0.194E+01
DAV:  34    -0.414770674426E+03   -0.42603E+00   -0.17399E-02  2888   0.248E-01    0.198E+01
DAV:  35    -0.415389698069E+03   -0.61902E+00   -0.33763E-02  2968   0.381E-01    0.203E+01
DAV:  36    -0.416095400741E+03   -0.70570E+00   -0.14969E-01  2992   0.102E+00    0.210E+01
DAV:  37    -0.416810466803E+03   -0.71507E+00   -0.89198E-02  3096   0.636E-01    0.220E+01
DAV:  38    -0.416550525252E+03    0.25994E+00   -0.11506E-01  2912   0.716E-01    0.224E+01
DAV:  39    -0.416573972313E+03   -0.23447E-01   -0.92718E-03  2552   0.272E-01    0.223E+01
DAV:  40    -0.416349197169E+03    0.22478E+00   -0.66868E-03  2608   0.143E-01    0.223E+01
DAV:  41    -0.406394788279E+03    0.99544E+01   -0.13801E+01  2792   0.372E+00    0.188E+01
DAV:  42    -0.405734883790E+03    0.65990E+00   -0.12660E+00  2872   0.171E+00    0.176E+01
DAV:  43    -0.405737940614E+03   -0.30568E-02   -0.10102E-01  3136   0.456E-01    0.174E+01
DAV:  44    -0.405420429389E+03    0.31751E+00   -0.67614E-02  3112   0.534E-01    0.169E+01
DAV:  45    -0.402736997780E+03    0.26834E+01   -0.21221E+00  2992   0.224E+00    0.125E+01
DAV:  46    -0.402230740626E+03    0.50626E+00   -0.37152E-01  3008   0.120E+00    0.109E+01
DAV:  47    -0.401692268124E+03    0.53847E+00   -0.22586E-01  3040   0.756E-01    0.921E+00
DAV:  48    -0.400487767188E+03    0.12045E+01   -0.24911E+00  2896   0.184E+00    0.464E+00
DAV:  49    -0.400457173933E+03    0.30593E-01   -0.33655E-01  2752   0.134E+00    0.398E+00
DAV:  50    -0.400331767883E+03    0.12541E+00   -0.19299E-01  3248   0.721E-01    0.271E+00
DAV:  51    -0.400272491920E+03    0.59276E-01   -0.59329E-01  2888   0.116E+00    0.789E-01
DAV:  52    -0.400261277942E+03    0.11214E-01   -0.42800E-01  2704   0.968E-01    0.107E+00
DAV:  53    -0.400267510124E+03   -0.62322E-02   -0.51363E-02  3168   0.452E-01    0.116E+00
DAV:  54    -0.400251130288E+03    0.16380E-01   -0.11777E-02  3088   0.217E-01    0.963E-01
DAV:  55    -0.400249250206E+03    0.18801E-02   -0.41650E-03  3184   0.120E-01    0.900E-01
DAV:  56    -0.400242627547E+03    0.66227E-02   -0.97743E-02  2848   0.360E-01    0.546E-01
DAV:  57    -0.400240238879E+03    0.23887E-02   -0.98208E-03  2632   0.179E-01    0.470E-01
DAV:  58    -0.400239454512E+03    0.78437E-03   -0.10478E-03  3192   0.574E-02    0.379E-01
DAV:  59    -0.400239225627E+03    0.22888E-03   -0.17320E-04  2840   0.300E-02    0.311E-01
DAV:  60    -0.400237653822E+03    0.15718E-02   -0.26791E-03  2776   0.909E-02    0.197E-01
DAV:  61    -0.400237324125E+03    0.32970E-03   -0.11658E-03  3120   0.877E-02    0.624E-02
DAV:  62    -0.400237158079E+03    0.16605E-03   -0.29489E-04  2848   0.314E-02    0.582E-02
DAV:  63    -0.400237112050E+03    0.46030E-04   -0.34765E-04  3000   0.366E-02    0.753E-02
DAV:  64    -0.400237114446E+03   -0.23969E-05   -0.50868E-05  2504   0.152E-02    0.642E-02
DAV:  65    -0.400237107288E+03    0.71582E-05   -0.26939E-05  2176   0.114E-02    0.540E-02
DAV:  66    -0.400237097423E+03    0.98654E-05   -0.76648E-06  1504   0.821E-03    0.409E-02
DAV:  67    -0.400237093666E+03    0.37572E-05   -0.76181E-06  1424   0.686E-03
   1 F= -.40023709E+03 E0= -.40018261E+03  d E =-.108967E+00
 running on   24 total cores
 distrk:  each k-point on    8 cores,    3 groups
 distr:  one band on    8 cores,    1 groups
 using from now: INCAR     
 vasp.5.4.4.18Apr17-6-g9f103f2a35 (build Jun 27 2018 15:25:23) complex          
  
 POSCAR found type information on POSCAR  Ti
 POSCAR found :  1 types and      36 ions
 scaLAPACK will be used

 ----------------------------------------------------------------------------- 
|                                                                             |
|           W    W    AA    RRRRR   N    N  II  N    N   GGGG   !!!           |
|           W    W   A  A   R    R  NN   N  II  NN   N  G    G  !!!           |
|           W    W  A    A  R    R  N N  N  II  N N  N  G       !!!           |
|           W WW W  AAAAAA  RRRRR   N  N N  II  N  N N  G  GGG   !            |
|           WW  WW  A    A  R   R   N   NN  II  N   NN  G    G                |
|           W    W  A    A  R    R  N    N  II  N    N   GGGG   !!!           |
|                                                                             |
|      You have enabled k-point parallelism (KPAR>1).                         |
|      This developmental code was originally  written by Paul Kent at ORNL,  |
|      and carefully double checked in Vienna.                                |
|      GW as well as linear response parallelism added by Martijn Marsman     |
|      and Georg Kresse.                                                      |
|      Carefully verify results versus KPAR=1.                                |
|      Report problems to Paul Kent and Vienna.                               |
|                                                                             |
 ----------------------------------------------------------------------------- 

 LDA part: xc-table for Pade appr. of Perdew
 POSCAR found type information on POSCAR  Ti
 POSCAR found :  1 types and      36 ions
 POSCAR, INCAR and KPOINTS ok, starting setup
 FFT: planning ...
 WAVECAR not read
 WARNING: random wavefunctions but no delay for mixing, default for NELMDL
 entering main loop
       N       E                     dE             d eps       ncg     rms          rms(c)
DAV:   1     0.732482734163E+03    0.73248E+03   -0.40423E+04  1274   0.108E+03
DAV:   2    -0.185214926589E+03   -0.91770E+03   -0.88129E+03  1283   0.244E+02
DAV:   3    -0.320554560943E+03   -0.13534E+03   -0.12748E+03  1956   0.875E+01
DAV:   4    -0.330626210391E+03   -0.10072E+02   -0.94030E+01  1916   0.286E+01
DAV:   5    -0.331135625900E+03   -0.50942E+00   -0.49865E+00  1988   0.577E+00    0.782E+01
DAV:   6    -0.503393716993E+03   -0.17226E+03   -0.29726E+03  2383   0.101E+02    0.995E+01
DAV:   7    -0.286475165475E+03    0.21692E+03   -0.40093E+03  2215   0.179E+02    0.342E+01
DAV:   8    -0.284972429702E+03    0.15027E+01   -0.58235E+02  1863   0.796E+01    0.383E+01
DAV:   9    -0.268754981209E+03    0.16217E+02   -0.86526E+01  2020   0.305E+01    0.291E+01
DAV:  10    -0.266812694826E+03    0.19423E+01   -0.67428E+00  2060   0.675E+00    0.272E+01
DAV:  11    -0.265087706629E+03    0.17250E+01   -0.12933E+00  2132   0.319E+00    0.248E+01
DAV:  12    -0.261877862681E+03    0.32098E+01   -0.10400E+01  1913   0.982E+00    0.199E+01
DAV:  13    -0.256340121868E+03    0.55377E+01   -0.26014E+01  2100   0.141E+01    0.693E+00
DAV:  14    -0.256072716971E+03    0.26740E+00   -0.26032E+00  2052   0.419E+00    0.471E+00
DAV:  15    -0.256181599922E+03   -0.10888E+00   -0.68000E-01  2020   0.233E+00    0.506E+00
DAV:  16    -0.255931665650E+03    0.24993E+00   -0.27074E+00  2076   0.405E+00    0.326E+00
DAV:  17    -0.255787840447E+03    0.14383E+00   -0.61896E-01  2060   0.249E+00    0.119E+00
DAV:  18    -0.255785070039E+03    0.27704E-02   -0.17889E-01  2028   0.126E+00    0.742E-01
DAV:  19    -0.255819216579E+03   -0.34147E-01   -0.27829E-01  1942   0.153E+00    0.153E+00
DAV:  20    -0.255800196103E+03    0.19020E-01   -0.19203E-01  1964   0.114E+00    0.659E-01
DAV:  21    -0.255793196899E+03    0.69992E-02   -0.28892E-02  1884   0.650E-01    0.167E-01
DAV:  22    -0.255795512121E+03   -0.23152E-02   -0.84956E-03  2068   0.209E-01    0.231E-01
DAV:  23    -0.255796212309E+03   -0.70019E-03   -0.27688E-03  1924   0.169E-01    0.761E-02
DAV:  24    -0.255796513934E+03   -0.30162E-03   -0.12084E-03  2020   0.916E-02    0.768E-02
DAV:  25    -0.255796598631E+03   -0.84697E-04   -0.70516E-04  2124   0.744E-02    0.354E-02
DAV:  26    -0.255796831823E+03   -0.23319E-03   -0.19583E-04  1884   0.402E-02    0.226E-02
DAV:  27    -0.255796977822E+03   -0.14600E-03   -0.54045E-05  1804   0.160E-02    0.154E-02
DAV:  28    -0.255797114892E+03   -0.13707E-03   -0.24021E-05  1492   0.137E-02    0.464E-03
DAV:  29    -0.255797212695E+03   -0.97803E-04   -0.10286E-05  1012   0.880E-03    0.968E-03
DAV:  30    -0.255797243041E+03   -0.30346E-04   -0.45838E-06   868   0.821E-03    0.854E-03
DAV:  31    -0.255797249581E+03   -0.65400E-05   -0.17626E-06   868   0.440E-03    0.412E-03
DAV:  32    -0.255797254187E+03   -0.46065E-05   -0.82164E-07   868   0.216E-03
   1 F= -.25579725E+03 E0= -.25572848E+03  d E =-.137557E+00
 running on   24 total cores
 distrk:  each k-point on    8 cores,    3 groups
 distr:  one band on    8 cores,    1 groups
 using from now: INCAR     
 vasp.5.4.4.18Apr17-6-g9f103f2a35 (build Jun 27 2018 15:25:23) complex          
  
 POSCAR found type information on POSCAR  Ti
 POSCAR found :  1 types and      90 ions
 scaLAPACK will be used

 ----------------------------------------------------------------------------- 
|                                                                             |
|           W    W    AA    RRRRR   N    N  II  N    N   GGGG   !!!           |
|           W    W   A  A   R    R  NN   N  II  NN   N  G    G  !!!           |
|           W    W  A    A  R    R  N N  N  II  N N  N  G       !!!           |
|           W WW W  AAAAAA  RRRRR   N  N N  II  N  N N  G  GGG   !            |
|           WW  WW  A    A  R   R   N   NN  II  N   NN  G    G                |
|           W    W  A    A  R    R  N    N  II  N    N   GGGG   !!!           |
|                                                                             |
|      You have enabled k-point parallelism (KPAR>1).                         |
|      This developmental code was originally  written by Paul Kent at ORNL,  |
|      and carefully double checked in Vienna.                                |
|      GW as well as linear response parallelism added by Martijn Marsman     |
|      and Georg Kresse.                                                      |
|      Carefully verify results versus KPAR=1.                                |
|      Report problems to Paul Kent and Vienna.                               |
|                                                                             |
 ----------------------------------------------------------------------------- 

 LDA part: xc-table for Pade appr. of Perdew
 POSCAR found type information on POSCAR  Ti
 POSCAR found :  1 types and      90 ions
 POSCAR, INCAR and KPOINTS ok, starting setup
 FFT: planning ...
 WAVECAR not read
 WARNING: random wavefunctions but no delay for mixing, default for NELMDL
 entering main loop
       N       E                     dE             d eps       ncg     rms          rms(c)
DAV:   1     0.152028388927E+04    0.15203E+04   -0.10305E+05 11300   0.124E+03
DAV:   2    -0.470623871899E+03   -0.19909E+04   -0.19366E+04 11300   0.276E+02
DAV:   3    -0.767326474207E+03   -0.29670E+03   -0.27720E+03 16936   0.949E+01
DAV:   4    -0.792310727753E+03   -0.24984E+02   -0.23644E+02 16952   0.279E+01
DAV:   5    -0.793348169000E+03   -0.10374E+01   -0.10085E+01 16600   0.436E+00    0.115E+02
DAV:   6    -0.158291970396E+04   -0.78957E+03   -0.73904E+03 22156   0.151E+02    0.107E+02
DAV:   7    -0.126520526576E+04    0.31771E+03   -0.16609E+04 20540   0.166E+02    0.104E+02
DAV:   8    -0.660184375706E+03    0.60502E+03   -0.38090E+03 19706   0.134E+02    0.573E+01
DAV:   9    -0.743314593099E+03   -0.83130E+02   -0.15123E+03 19792   0.724E+01    0.541E+01
DAV:  10    -0.713092758855E+03    0.30222E+02   -0.54447E+02 19864   0.548E+01    0.439E+01
DAV:  11    -0.700425876430E+03    0.12667E+02   -0.15164E+02 18736   0.252E+01    0.353E+01
DAV:  12    -0.695607529487E+03    0.48183E+01   -0.25983E+01 17904   0.980E+00    0.295E+01
DAV:  13    -0.691408869167E+03    0.41987E+01   -0.77542E+00 17152   0.665E+00    0.235E+01
DAV:  14    -0.686114198421E+03    0.52947E+01   -0.17572E+01 16960   0.976E+00    0.130E+01
DAV:  15    -0.683644874975E+03    0.24693E+01   -0.73300E+00 16280   0.658E+00    0.587E+00
DAV:  16    -0.683221491678E+03    0.42338E+00   -0.24151E+00 17240   0.354E+00    0.455E+00
DAV:  17    -0.683295528788E+03   -0.74037E-01   -0.28639E+00 17832   0.347E+00    0.555E+00
DAV:  18    -0.682870184924E+03    0.42534E+00   -0.17317E+00 17072   0.314E+00    0.295E+00
DAV:  19    -0.682802353366E+03    0.67832E-01   -0.73948E-01 17488   0.194E+00    0.224E+00
DAV:  20    -0.682757624905E+03    0.44728E-01   -0.45843E-01 16904   0.145E+00    0.136E+00
DAV:  21    -0.682760974864E+03   -0.33500E-02   -0.30549E-01 17376   0.125E+00    0.130E+00
DAV:  22    -0.682746739666E+03    0.14235E-01   -0.16789E-01 16920   0.888E-01    0.911E-01
DAV:  23    -0.682738646681E+03    0.80930E-02   -0.54578E-02 17176   0.519E-01    0.606E-01
DAV:  24    -0.682734545750E+03    0.41009E-02   -0.27347E-02 18184   0.368E-01    0.340E-01
DAV:  25    -0.682734140219E+03    0.40553E-03   -0.92930E-03 17352   0.203E-01    0.227E-01
DAV:  26    -0.682733637343E+03    0.50288E-03   -0.46580E-03 17088   0.151E-01    0.102E-01
DAV:  27    -0.682733606077E+03    0.31266E-04   -0.15970E-03 17064   0.825E-02    0.823E-02
DAV:  28    -0.682733592948E+03    0.13129E-04   -0.67054E-04 17144   0.565E-02    0.728E-02
DAV:  29    -0.682733531913E+03    0.61035E-04   -0.36527E-04 17176   0.418E-02    0.467E-02
DAV:  30    -0.682733522970E+03    0.89429E-05   -0.14326E-04 17224   0.245E-02    0.296E-02
DAV:  31    -0.682733516643E+03    0.63271E-05   -0.74560E-05 16128   0.171E-02    0.170E-02
DAV:  32    -0.682733512343E+03    0.43004E-05   -0.17109E-05  9680   0.112E-02
   1 F= -.68273351E+03 E0= -.68263887E+03  d E =-.189276E+00
Distance=2.500
 running on   24 total cores
 distrk:  each k-point on    8 cores,    3 groups
 distr:  one band on    8 cores,    1 groups
 using from now: INCAR     
 vasp.5.4.4.18Apr17-6-g9f103f2a35 (build Jun 27 2018 15:25:23) complex          
  
 POSCAR found type information on POSCAR  Ti
 POSCAR found :  1 types and      54 ions
 scaLAPACK will be used

 ----------------------------------------------------------------------------- 
|                                                                             |
|           W    W    AA    RRRRR   N    N  II  N    N   GGGG   !!!           |
|           W    W   A  A   R    R  NN   N  II  NN   N  G    G  !!!           |
|           W    W  A    A  R    R  N N  N  II  N N  N  G       !!!           |
|           W WW W  AAAAAA  RRRRR   N  N N  II  N  N N  G  GGG   !            |
|           WW  WW  A    A  R   R   N   NN  II  N   NN  G    G                |
|           W    W  A    A  R    R  N    N  II  N    N   GGGG   !!!           |
|                                                                             |
|      You have enabled k-point parallelism (KPAR>1).                         |
|      This developmental code was originally  written by Paul Kent at ORNL,  |
|      and carefully double checked in Vienna.                                |
|      GW as well as linear response parallelism added by Martijn Marsman     |
|      and Georg Kresse.                                                      |
|      Carefully verify results versus KPAR=1.                                |
|      Report problems to Paul Kent and Vienna.                               |
|                                                                             |
 ----------------------------------------------------------------------------- 

 LDA part: xc-table for Pade appr. of Perdew
 POSCAR found type information on POSCAR  Ti
 POSCAR found :  1 types and      54 ions
 POSCAR, INCAR and KPOINTS ok, starting setup
 FFT: planning ...
 WAVECAR not read
 entering main loop
       N       E                     dE             d eps       ncg     rms          rms(c)
DAV:   1     0.101842318174E+04    0.10184E+04   -0.62031E+04  1904   0.114E+03
DAV:   2    -0.278846610420E+03   -0.12973E+04   -0.12566E+04  1904   0.254E+02
DAV:   3    -0.468005205094E+03   -0.18916E+03   -0.17970E+03  3000   0.871E+01
DAV:   4    -0.485057468165E+03   -0.17052E+02   -0.16194E+02  3056   0.275E+01
DAV:   5    -0.486191413680E+03   -0.11339E+01   -0.10664E+01  3048   0.574E+00    0.857E+01
DAV:   6    -0.924724141690E+03   -0.43853E+03   -0.53518E+03  3768   0.108E+02    0.128E+02
DAV:   7    -0.454750325505E+03    0.46997E+03   -0.75515E+03  3408   0.161E+02    0.506E+01
DAV:   8    -0.410120972476E+03    0.44629E+02   -0.10962E+03  3112   0.972E+01    0.345E+01
DAV:   9    -0.416388397404E+03   -0.62674E+01   -0.22859E+02  3176   0.311E+01    0.302E+01
DAV:  10    -0.417996346373E+03   -0.16079E+01   -0.24823E+01  3200   0.888E+00    0.314E+01
DAV:  11    -0.418129302841E+03   -0.13296E+00   -0.17535E+00  3016   0.183E+00    0.316E+01
DAV:  12    -0.420842802068E+03   -0.27135E+01   -0.13912E+01  3072   0.719E+00    0.331E+01
DAV:  13    -0.421606200659E+03   -0.76340E+00   -0.37656E+00  3136   0.408E+00    0.344E+01
DAV:  14    -0.419278413371E+03    0.23278E+01   -0.21712E+01  3096   0.980E+00    0.284E+01
DAV:  15    -0.435388647565E+03   -0.16110E+02   -0.95960E+01  2920   0.212E+01    0.373E+01
DAV:  16    -0.431779781767E+03    0.36089E+01   -0.16664E+01  3016   0.988E+00    0.358E+01
DAV:  17    -0.423800596902E+03    0.79792E+01   -0.49574E+00  3056   0.487E+00    0.299E+01
DAV:  18    -0.417503128139E+03    0.62975E+01   -0.24308E+00  3024   0.354E+00    0.259E+01
DAV:  19    -0.408432283656E+03    0.90708E+01   -0.96134E+00  3016   0.546E+00    0.178E+01
DAV:  20    -0.408449487605E+03   -0.17204E-01   -0.65831E-01  3000   0.199E+00    0.178E+01
DAV:  21    -0.405437797701E+03    0.30117E+01   -0.20125E+00  3000   0.244E+00    0.141E+01
DAV:  22    -0.402046652576E+03    0.33911E+01   -0.56125E+00  2920   0.388E+00    0.103E+01
DAV:  23    -0.400308236270E+03    0.17384E+01   -0.12758E+01  3016   0.477E+00    0.531E+00
DAV:  24    -0.400382961891E+03   -0.74726E-01   -0.10852E+00  2960   0.236E+00    0.466E+00
DAV:  25    -0.400399863306E+03   -0.16901E-01   -0.98203E-02  3400   0.582E-01    0.487E+00
DAV:  26    -0.400349369132E+03    0.50494E-01   -0.63527E-01  3040   0.203E+00    0.395E+00
DAV:  27    -0.400371088823E+03   -0.21720E-01   -0.27830E-01  2888   0.146E+00    0.418E+00
DAV:  28    -0.400709407738E+03   -0.33832E+00   -0.90850E-01  3072   0.161E+00    0.526E+00
DAV:  29    -0.400599991165E+03    0.10942E+00   -0.99009E-02  2784   0.935E-01    0.471E+00
DAV:  30    -0.400355584961E+03    0.24441E+00   -0.37927E-01  3064   0.111E+00    0.319E+00
DAV:  31    -0.400315295167E+03    0.40290E-01   -0.57125E-02  3168   0.448E-01    0.283E+00
DAV:  32    -0.400294416772E+03    0.20878E-01   -0.14023E-02  3104   0.222E-01    0.250E+00
DAV:  33    -0.400250133757E+03    0.44283E-01   -0.18334E-01  3088   0.802E-01    0.152E+00
DAV:  34    -0.400250791112E+03   -0.65736E-03   -0.16763E-02  2920   0.303E-01    0.144E+00
DAV:  35    -0.400242478957E+03    0.83122E-02   -0.23409E-02  2984   0.342E-01    0.845E-01
DAV:  36    -0.400239678943E+03    0.28000E-02   -0.56759E-03  2880   0.177E-01    0.434E-01
DAV:  37    -0.400239004701E+03    0.67424E-03   -0.23055E-03  2968   0.122E-01    0.209E-01
DAV:  38    -0.400238549197E+03    0.45550E-03   -0.24425E-03  3016   0.129E-01    0.117E-01
DAV:  39    -0.400238537490E+03    0.11707E-04   -0.39454E-04  2816   0.501E-02    0.136E-01
DAV:  40    -0.400238477359E+03    0.60130E-04   -0.26387E-04  2928   0.318E-02    0.148E-01
DAV:  41    -0.400238452914E+03    0.24445E-04   -0.32514E-04  3080   0.370E-02    0.111E-01
DAV:  42    -0.400238439416E+03    0.13498E-04   -0.25032E-05  1952   0.132E-02    0.103E-01
DAV:  43    -0.400238425362E+03    0.14054E-04   -0.13493E-05  1712   0.643E-03    0.956E-02
DAV:  44    -0.400238398931E+03    0.26431E-04   -0.33087E-05  2264   0.122E-02    0.707E-02
DAV:  45    -0.400238392693E+03    0.62379E-05   -0.90215E-06  1384   0.702E-03    0.600E-02
DAV:  46    -0.400238387816E+03    0.48771E-05   -0.11972E-05  1696   0.582E-03
   1 F= -.40023839E+03 E0= -.40018379E+03  d E =-.109204E+00
 running on   24 total cores
 distrk:  each k-point on    8 cores,    3 groups
 distr:  one band on    8 cores,    1 groups
 using from now: INCAR     
 vasp.5.4.4.18Apr17-6-g9f103f2a35 (build Jun 27 2018 15:25:23) complex          
  
 POSCAR found type information on POSCAR  Ti
 POSCAR found :  1 types and      36 ions
 scaLAPACK will be used

 ----------------------------------------------------------------------------- 
|                                                                             |
|           W    W    AA    RRRRR   N    N  II  N    N   GGGG   !!!           |
|           W    W   A  A   R    R  NN   N  II  NN   N  G    G  !!!           |
|           W    W  A    A  R    R  N N  N  II  N N  N  G       !!!           |
|           W WW W  AAAAAA  RRRRR   N  N N  II  N  N N  G  GGG   !            |
|           WW  WW  A    A  R   R   N   NN  II  N   NN  G    G                |
|           W    W  A    A  R    R  N    N  II  N    N   GGGG   !!!           |
|                                                                             |
|      You have enabled k-point parallelism (KPAR>1).                         |
|      This developmental code was originally  written by Paul Kent at ORNL,  |
|      and carefully double checked in Vienna.                                |
|      GW as well as linear response parallelism added by Martijn Marsman     |
|      and Georg Kresse.                                                      |
|      Carefully verify results versus KPAR=1.                                |
|      Report problems to Paul Kent and Vienna.                               |
|                                                                             |
 ----------------------------------------------------------------------------- 

 LDA part: xc-table for Pade appr. of Perdew
 POSCAR found type information on POSCAR  Ti
 POSCAR found :  1 types and      36 ions
 POSCAR, INCAR and KPOINTS ok, starting setup
 FFT: planning ...
 WAVECAR not read
 WARNING: random wavefunctions but no delay for mixing, default for NELMDL
 entering main loop
       N       E                     dE             d eps       ncg     rms          rms(c)
DAV:   1     0.735776449279E+03    0.73578E+03   -0.40287E+04  1274   0.107E+03
DAV:   2    -0.184162168279E+03   -0.91994E+03   -0.88584E+03  1274   0.244E+02
DAV:   3    -0.320140528565E+03   -0.13598E+03   -0.12787E+03  1972   0.861E+01
DAV:   4    -0.330572727575E+03   -0.10432E+02   -0.96954E+01  1892   0.282E+01
DAV:   5    -0.331133620770E+03   -0.56089E+00   -0.54727E+00  2020   0.601E+00    0.782E+01
DAV:   6    -0.506835770324E+03   -0.17570E+03   -0.30227E+03  2399   0.101E+02    0.100E+02
DAV:   7    -0.287993132461E+03    0.21884E+03   -0.41213E+03  2223   0.182E+02    0.345E+01
DAV:   8    -0.284036463997E+03    0.39567E+01   -0.58230E+02  1869   0.800E+01    0.379E+01
DAV:   9    -0.269149027700E+03    0.14887E+02   -0.78879E+01  2012   0.286E+01    0.294E+01
DAV:  10    -0.267369850038E+03    0.17792E+01   -0.62120E+00  2076   0.636E+00    0.277E+01
DAV:  11    -0.265435480097E+03    0.19344E+01   -0.14350E+00  2153   0.339E+00    0.251E+01
DAV:  12    -0.262105729328E+03    0.33298E+01   -0.99734E+00  1900   0.965E+00    0.204E+01
DAV:  13    -0.256368856300E+03    0.57369E+01   -0.26295E+01  2100   0.143E+01    0.711E+00
DAV:  14    -0.256110892894E+03    0.25796E+00   -0.26608E+00  2068   0.413E+00    0.497E+00
DAV:  15    -0.256182381685E+03   -0.71489E-01   -0.45174E-01  2012   0.193E+00    0.515E+00
DAV:  16    -0.255916977980E+03    0.26540E+00   -0.25251E+00  2068   0.403E+00    0.323E+00
DAV:  17    -0.255803235868E+03    0.11374E+00   -0.73822E-01  2004   0.262E+00    0.161E+00
DAV:  18    -0.255780004338E+03    0.23232E-01   -0.13545E-01  1948   0.101E+00    0.631E-01
DAV:  19    -0.255786598550E+03   -0.65942E-02   -0.32091E-02  2132   0.410E-01    0.268E-01
DAV:  20    -0.255790803746E+03   -0.42052E-02   -0.17718E-02  2004   0.374E-01    0.296E-01
DAV:  21    -0.255797383816E+03   -0.65801E-02   -0.31035E-02  2108   0.502E-01    0.487E-01
DAV:  22    -0.255797064875E+03    0.31894E-03   -0.70759E-03  1948   0.264E-01    0.347E-01
DAV:  23    -0.255796335096E+03    0.72978E-03   -0.10935E-02  2036   0.239E-01    0.895E-02
DAV:  24    -0.255796872582E+03   -0.53749E-03   -0.17560E-03  2004   0.132E-01    0.130E-01
DAV:  25    -0.255796900605E+03   -0.28023E-04   -0.11233E-03  1932   0.898E-02    0.280E-02
DAV:  26    -0.255797030669E+03   -0.13006E-03   -0.86779E-05  1772   0.202E-02    0.214E-02
DAV:  27    -0.255797083168E+03   -0.52500E-04   -0.12302E-05  1220   0.910E-03    0.155E-02
DAV:  28    -0.255797195938E+03   -0.11277E-03   -0.74485E-05  1940   0.207E-02    0.173E-02
DAV:  29    -0.255797221990E+03   -0.26052E-04   -0.49314E-06   932   0.783E-03    0.109E-02
DAV:  30    -0.255797279807E+03   -0.57816E-04   -0.15939E-05  1212   0.763E-03    0.795E-03
DAV:  31    -0.255797308760E+03   -0.28953E-04   -0.35637E-06   868   0.603E-03    0.488E-03
DAV:  32    -0.255797318221E+03   -0.94603E-05   -0.32860E-06   868   0.473E-03    0.620E-03
[...]
DAV:  49    -0.656115744296E+03    0.10907E-04   -0.47879E-05 14488   0.139E-02    0.427E-02
DAV:  50    -0.656115721178E+03    0.23118E-04   -0.32737E-05 13824   0.103E-02    0.260E-02
DAV:  51    -0.656115709385E+03    0.11794E-04   -0.22618E-05 12784   0.852E-03    0.118E-02
DAV:  52    -0.656115707845E+03    0.15401E-05   -0.69632E-06  8176   0.592E-03
   1 F= -.65611571E+03 E0= -.65599180E+03  d E =-.247814E+00
Distance=10.000
 running on   24 total cores
 distrk:  each k-point on    8 cores,    3 groups
 distr:  one band on    8 cores,    1 groups
 using from now: INCAR     
 vasp.5.4.4.18Apr17-6-g9f103f2a35 (build Jun 27 2018 15:25:23) complex          
  
 POSCAR found type information on POSCAR  Ti
 POSCAR found :  1 types and      54 ions
 scaLAPACK will be used

 ----------------------------------------------------------------------------- 
|                                                                             |
|           W    W    AA    RRRRR   N    N  II  N    N   GGGG   !!!           |
|           W    W   A  A   R    R  NN   N  II  NN   N  G    G  !!!           |
|           W    W  A    A  R    R  N N  N  II  N N  N  G       !!!           |
|           W WW W  AAAAAA  RRRRR   N  N N  II  N  N N  G  GGG   !            |
|           WW  WW  A    A  R   R   N   NN  II  N   NN  G    G                |
|           W    W  A    A  R    R  N    N  II  N    N   GGGG   !!!           |
|                                                                             |
|      You have enabled k-point parallelism (KPAR>1).                         |
|      This developmental code was originally  written by Paul Kent at ORNL,  |
|      and carefully double checked in Vienna.                                |
|      GW as well as linear response parallelism added by Martijn Marsman     |
|      and Georg Kresse.                                                      |
|      Carefully verify results versus KPAR=1.                                |
|      Report problems to Paul Kent and Vienna.                               |
|                                                                             |
 ----------------------------------------------------------------------------- 

 LDA part: xc-table for Pade appr. of Perdew
 POSCAR found type information on POSCAR  Ti
 POSCAR found :  1 types and      54 ions
 POSCAR, INCAR and KPOINTS ok, starting setup
 FFT: planning ...
 WAVECAR not read
 entering main loop
       N       E                     dE             d eps       ncg     rms          rms(c)
DAV:   1     0.108387440757E+04    0.10839E+04   -0.59801E+04  1904   0.106E+03
DAV:   2    -0.280307133010E+03   -0.13642E+04   -0.13161E+04  1928   0.243E+02
DAV:   3    -0.468879550277E+03   -0.18857E+03   -0.17970E+03  3144   0.823E+01
DAV:   4    -0.484957709500E+03   -0.16078E+02   -0.15195E+02  2968   0.258E+01
DAV:   5    -0.486188873285E+03   -0.12312E+01   -0.11622E+01  3104   0.607E+00    0.857E+01
DAV:   6    -0.934629862350E+03   -0.44844E+03   -0.54438E+03  3760   0.109E+02    0.128E+02
DAV:   7    -0.574818253889E+03    0.35981E+03   -0.11026E+04  3328   0.186E+02    0.621E+01
DAV:   8    -0.421105249530E+03    0.15371E+03   -0.15078E+03  2960   0.128E+02    0.464E+01
DAV:   9    -0.418921318003E+03    0.21839E+01   -0.39210E+02  3152   0.474E+01    0.352E+01
DAV:  10    -0.421211631567E+03   -0.22903E+01   -0.53413E+01  3184   0.129E+01    0.346E+01
DAV:  11    -0.420389474275E+03    0.82216E+00   -0.41058E+00  3176   0.374E+00    0.334E+01
DAV:  12    -0.408272706314E+03    0.12117E+02   -0.25701E+01  2504   0.161E+01    0.176E+01
DAV:  13    -0.403593520487E+03    0.46792E+01   -0.54302E+00  2760   0.702E+00    0.119E+01
DAV:  14    -0.404159125639E+03   -0.56561E+00   -0.41927E-01  2856   0.168E+00    0.127E+01
DAV:  15    -0.401236789993E+03    0.29223E+01   -0.83962E+00  3104   0.641E+00    0.617E+00
DAV:  16    -0.400676678454E+03    0.56011E+00   -0.14253E+00  2560   0.380E+00    0.430E+00
DAV:  17    -0.400393162121E+03    0.28352E+00   -0.67073E+00  2888   0.724E+00    0.308E+00
DAV:  18    -0.400236710848E+03    0.15645E+00   -0.78817E-01  2584   0.253E+00    0.102E+00
DAV:  19    -0.400231710507E+03    0.50003E-02   -0.86900E-02  3192   0.614E-01    0.478E-01
DAV:  20    -0.400233040099E+03   -0.13296E-02   -0.67484E-03  2624   0.226E-01    0.401E-01
DAV:  21    -0.400235669519E+03   -0.26294E-02   -0.53610E-02  3040   0.571E-01    0.331E-01
DAV:  22    -0.400234770337E+03    0.89918E-03   -0.64842E-03  2800   0.218E-01    0.151E-01
DAV:  23    -0.400236058264E+03   -0.12879E-02   -0.51098E-03  3024   0.152E-01    0.911E-02
DAV:  24    -0.400236186601E+03   -0.12834E-03   -0.88269E-04  3080   0.695E-02    0.814E-02
DAV:  25    -0.400236486113E+03   -0.29951E-03   -0.70442E-04  2264   0.844E-02    0.285E-02
DAV:  26    -0.400236952929E+03   -0.46682E-03   -0.52840E-04  2888   0.640E-02    0.546E-02
DAV:  27    -0.400237022336E+03   -0.69407E-04   -0.72575E-05  2624   0.228E-02    0.386E-02
DAV:  28    -0.400237154255E+03   -0.13192E-03   -0.21186E-04  2904   0.369E-02    0.215E-02
DAV:  29    -0.400237170944E+03   -0.16688E-04   -0.33454E-05  2304   0.153E-02    0.752E-03
DAV:  30    -0.400237222427E+03   -0.51483E-04   -0.21199E-05  1984   0.133E-02    0.959E-03
DAV:  31    -0.400237250922E+03   -0.28496E-04   -0.95785E-06  1592   0.647E-03    0.858E-03
DAV:  32    -0.400237254593E+03   -0.36706E-05   -0.19407E-06  1240   0.465E-03
   1 F= -.40023725E+03 E0= -.40018276E+03  d E =-.108988E+00
 running on   24 total cores
 distrk:  each k-point on    8 cores,    3 groups
 distr:  one band on    8 cores,    1 groups
 using from now: INCAR     
 vasp.5.4.4.18Apr17-6-g9f103f2a35 (build Jun 27 2018 15:25:23) complex          
  
 POSCAR found type information on POSCAR  Ti
 POSCAR found :  1 types and      36 ions
 scaLAPACK will be used

 ----------------------------------------------------------------------------- 
|                                                                             |
|           W    W    AA    RRRRR   N    N  II  N    N   GGGG   !!!           |
|           W    W   A  A   R    R  NN   N  II  NN   N  G    G  !!!           |
|           W    W  A    A  R    R  N N  N  II  N N  N  G       !!!           |
|           W WW W  AAAAAA  RRRRR   N  N N  II  N  N N  G  GGG   !            |
|           WW  WW  A    A  R   R   N   NN  II  N   NN  G    G                |
|           W    W  A    A  R    R  N    N  II  N    N   GGGG   !!!           |
|                                                                             |
|      You have enabled k-point parallelism (KPAR>1).                         |
|      This developmental code was originally  written by Paul Kent at ORNL,  |
|      and carefully double checked in Vienna.                                |
|      GW as well as linear response parallelism added by Martijn Marsman     |
|      and Georg Kresse.                                                      |
|      Carefully verify results versus KPAR=1.                                |
|      Report problems to Paul Kent and Vienna.                               |
|                                                                             |
 ----------------------------------------------------------------------------- 

 LDA part: xc-table for Pade appr. of Perdew
 POSCAR found type information on POSCAR  Ti
 POSCAR found :  1 types and      36 ions
 POSCAR, INCAR and KPOINTS ok, starting setup
 FFT: planning ...
 WAVECAR not read
 WARNING: random wavefunctions but no delay for mixing, default for NELMDL
 entering main loop
       N       E                     dE             d eps       ncg     rms          rms(c)
DAV:   1     0.722786999888E+03    0.72279E+03   -0.37921E+04  1274   0.991E+02
DAV:   2    -0.208564966823E+03   -0.93135E+03   -0.88846E+03  1421   0.235E+02
DAV:   3    -0.322771210530E+03   -0.11421E+03   -0.10805E+03  1908   0.826E+01
DAV:   4    -0.330706589404E+03   -0.79354E+01   -0.74352E+01  1900   0.249E+01
DAV:   5    -0.331140258706E+03   -0.43367E+00   -0.42603E+00  1956   0.522E+00    0.782E+01
DAV:   6    -0.508763797250E+03   -0.17762E+03   -0.30485E+03  2404   0.102E+02    0.100E+02
DAV:   7    -0.307449382241E+03    0.20131E+03   -0.48374E+03  2223   0.196E+02    0.388E+01
DAV:   8    -0.284301522767E+03    0.23148E+02   -0.65298E+02  1799   0.892E+01    0.376E+01
DAV:   9    -0.274585242772E+03    0.97163E+01   -0.61430E+01  2049   0.239E+01    0.332E+01
DAV:  10    -0.266604128273E+03    0.79811E+01   -0.11112E+01  2116   0.933E+00    0.256E+01
DAV:  11    -0.263961952683E+03    0.26422E+01   -0.28382E+00  2044   0.492E+00    0.222E+01
DAV:  12    -0.259875621840E+03    0.40863E+01   -0.10447E+01  1820   0.105E+01    0.157E+01
DAV:  13    -0.256544177868E+03    0.33314E+01   -0.20182E+01  2124   0.106E+01    0.713E+00
DAV:  14    -0.256811746595E+03   -0.26757E+00   -0.17467E+00  2140   0.331E+00    0.763E+00
DAV:  15    -0.256842072090E+03   -0.30325E-01   -0.14421E-01  2220   0.844E-01    0.776E+00
DAV:  16    -0.256953131687E+03   -0.11106E+00   -0.71382E-01  2076   0.228E+00    0.796E+00
DAV:  17    -0.256673195844E+03    0.27994E+00   -0.66906E+00  1985   0.761E+00    0.791E+00
DAV:  18    -0.256818879010E+03   -0.14568E+00   -0.91003E-01  1940   0.267E+00    0.916E+00
DAV:  19    -0.256173362599E+03    0.64552E+00   -0.10809E+00  1929   0.282E+00    0.577E+00
DAV:  20    -0.256048398653E+03    0.12496E+00   -0.15357E-01  2036   0.112E+00    0.495E+00
DAV:  21    -0.255926899636E+03    0.12150E+00   -0.12589E-01  2052   0.955E-01    0.362E+00
DAV:  22    -0.255830471196E+03    0.96428E-01   -0.27583E-01  2020   0.138E+00    0.193E+00
DAV:  23    -0.255793971055E+03    0.36500E-01   -0.48738E-01  2004   0.186E+00    0.786E-01
DAV:  24    -0.255790804895E+03    0.31662E-02   -0.50405E-02  1900   0.625E-01    0.210E-01
DAV:  25    -0.255792541640E+03   -0.17367E-02   -0.31715E-03  2116   0.118E-01    0.202E-01
DAV:  26    -0.255795820093E+03   -0.32785E-02   -0.12013E-02  2068   0.302E-01    0.408E-01
DAV:  27    -0.255795524957E+03    0.29514E-03   -0.27639E-02  1948   0.450E-01    0.230E-01
DAV:  28    -0.255795695084E+03   -0.17013E-03   -0.32403E-03  1884   0.174E-01    0.664E-02
DAV:  29    -0.255796487540E+03   -0.79246E-03   -0.61740E-04  1972   0.633E-02    0.656E-02
DAV:  30    -0.255796628467E+03   -0.14093E-03   -0.13412E-04  2028   0.325E-02    0.793E-02
DAV:  31    -0.255796868767E+03   -0.24030E-03   -0.22081E-04  1924   0.387E-02    0.365E-02
DAV:  32    -0.255796957318E+03   -0.88551E-04   -0.14479E-04  2004   0.335E-02    0.123E-02
DAV:  33    -0.255797046678E+03   -0.89360E-04   -0.11266E-05  1084   0.915E-03    0.702E-03
DAV:  34    -0.255797097142E+03   -0.50464E-04   -0.28467E-06   844   0.643E-03    0.694E-03
DAV:  35    -0.255797114148E+03   -0.17005E-04   -0.34483E-06   844   0.589E-03    0.508E-03
DAV:  36    -0.255797116459E+03   -0.23111E-05   -0.13975E-06   844   0.390E-03
   1 F= -.25579712E+03 E0= -.25572834E+03  d E =-.137560E+00
 running on   24 total cores
 distrk:  each k-point on    8 cores,    3 groups
 distr:  one band on    8 cores,    1 groups
 using from now: INCAR     
 vasp.5.4.4.18Apr17-6-g9f103f2a35 (build Jun 27 2018 15:25:23) complex          
  
 POSCAR found type information on POSCAR  Ti
 POSCAR found :  1 types and      90 ions
 scaLAPACK will be used

 ----------------------------------------------------------------------------- 
|                                                                             |
|           W    W    AA    RRRRR   N    N  II  N    N   GGGG   !!!           |
|           W    W   A  A   R    R  NN   N  II  NN   N  G    G  !!!           |
|           W    W  A    A  R    R  N N  N  II  N N  N  G       !!!           |
|           W WW W  AAAAAA  RRRRR   N  N N  II  N  N N  G  GGG   !            |
|           WW  WW  A    A  R   R   N   NN  II  N   NN  G    G                |
|           W    W  A    A  R    R  N    N  II  N    N   GGGG   !!!           |
|                                                                             |
|      You have enabled k-point parallelism (KPAR>1).                         |
|      This developmental code was originally  written by Paul Kent at ORNL,  |
|      and carefully double checked in Vienna.                                |
|      GW as well as linear response parallelism added by Martijn Marsman     |
|      and Georg Kresse.                                                      |
|      Carefully verify results versus KPAR=1.                                |
|      Report problems to Paul Kent and Vienna.                               |
|                                                                             |
 ----------------------------------------------------------------------------- 

 LDA part: xc-table for Pade appr. of Perdew
 POSCAR found type information on POSCAR  Ti
 POSCAR found :  1 types and      90 ions
 POSCAR, INCAR and KPOINTS ok, starting setup
 FFT: planning ...
 WAVECAR not read
 WARNING: random wavefunctions but no delay for mixing, default for NELMDL
 entering main loop
       N       E                     dE             d eps       ncg     rms          rms(c)
DAV:   1     0.170953850454E+04    0.17095E+04   -0.10336E+05 11300   0.115E+03
DAV:   2    -0.459928954401E+03   -0.21695E+04   -0.20974E+04 11300   0.257E+02
DAV:   3    -0.792308862114E+03   -0.33238E+03   -0.31437E+03 17472   0.909E+01
DAV:   4    -0.820751143422E+03   -0.28442E+02   -0.27088E+02 17392   0.285E+01
DAV:   5    -0.822340347050E+03   -0.15892E+01   -0.15337E+01 18056   0.585E+00    0.117E+02
DAV:   6    -0.378392051645E+04   -0.29616E+04   -0.33397E+04 18576   0.960E+01    0.124E+02
DAV:   7    -0.379179096493E+04   -0.78704E+01   -0.59686E+04 22516   0.106E+02    0.238E+02
DAV:   8    -0.577364716339E+03    0.32144E+04   -0.92599E+03 16504   0.216E+02    0.637E+01
DAV:   9    -0.100308714172E+04   -0.42572E+03   -0.77368E+03 21208   0.113E+02    0.103E+02
DAV:  10    -0.725696762343E+03    0.27739E+03   -0.30711E+03 18526   0.130E+02    0.493E+01
DAV:  11    -0.868923220389E+03   -0.14323E+03   -0.17605E+03 20900   0.842E+01    0.746E+01
DAV:  12    -0.670488538656E+03    0.19843E+03   -0.69791E+02 21080   0.596E+01    0.349E+01
DAV:  13    -0.679103739589E+03   -0.86152E+01   -0.25730E+02 19728   0.260E+01    0.325E+01
DAV:  14    -0.681980015768E+03   -0.28763E+01   -0.10493E+02 19872   0.193E+01    0.314E+01
DAV:  15    -0.676498104003E+03    0.54819E+01   -0.57856E+01 18536   0.155E+01    0.264E+01
DAV:  16    -0.671875148260E+03    0.46230E+01   -0.24328E+01 18312   0.974E+00    0.224E+01
DAV:  17    -0.666420858536E+03    0.54543E+01   -0.10560E+01 19064   0.679E+00    0.183E+01
DAV:  18    -0.662736570338E+03    0.36843E+01   -0.83199E+00 17864   0.427E+00    0.164E+01
DAV:  19    -0.661930183840E+03    0.80639E+00   -0.63969E+00 17736   0.328E+00    0.138E+01
DAV:  20    -0.663372612158E+03   -0.14424E+01   -0.11108E+01 18240   0.298E+00    0.192E+01
DAV:  21    -0.660293153948E+03    0.30795E+01   -0.50424E+00 18494   0.213E+00    0.126E+01
DAV:  22    -0.659635150196E+03    0.65800E+00   -0.18457E+00 17512   0.157E+00    0.126E+01
DAV:  23    -0.657956296616E+03    0.16789E+01   -0.25849E+00 16976   0.279E+00    0.860E+00
DAV:  24    -0.657763196535E+03    0.19310E+00   -0.82164E-01 16944   0.150E+00    0.783E+00
DAV:  25    -0.657535273966E+03    0.22792E+00   -0.22844E-01 16864   0.970E-01    0.717E+00
DAV:  26    -0.656977727854E+03    0.55755E+00   -0.61173E-01 17408   0.170E+00    0.591E+00
DAV:  27    -0.656600351524E+03    0.37738E+00   -0.47566E-01 17720   0.151E+00    0.466E+00
DAV:  28    -0.656399574832E+03    0.20078E+00   -0.29686E-01 16896   0.115E+00    0.381E+00
DAV:  29    -0.656245672220E+03    0.15390E+00   -0.30032E-01 16288   0.106E+00    0.281E+00
DAV:  30    -0.656211329383E+03    0.34343E-01   -0.91015E-02 17152   0.596E-01    0.238E+00
DAV:  31    -0.656172046629E+03    0.39283E-01   -0.51483E-02 17464   0.442E-01    0.191E+00
DAV:  32    -0.656139359886E+03    0.32687E-01   -0.43433E-02 17328   0.291E-01    0.148E+00
DAV:  33    -0.656112735782E+03    0.26624E-01   -0.41689E-02 17080   0.260E-01    0.949E-01
DAV:  34    -0.656105009345E+03    0.77264E-02   -0.61062E-02 17624   0.303E-01    0.541E-01
DAV:  35    -0.656103881095E+03    0.11283E-02   -0.17718E-02 17176   0.229E-01    0.348E-01
DAV:  36    -0.656105266272E+03   -0.13852E-02   -0.15554E-02 17744   0.194E-01    0.365E-01
DAV:  37    -0.656105547424E+03   -0.28115E-03   -0.71425E-03 17264   0.130E-01    0.342E-01
DAV:  38    -0.656107080843E+03   -0.15334E-02   -0.61927E-03 16984   0.104E-01    0.371E-01
DAV:  39    -0.656111504909E+03   -0.44241E-02   -0.44052E-03 17896   0.931E-02    0.545E-01
DAV:  40    -0.656109091859E+03    0.24130E-02   -0.13313E-03 16600   0.563E-02    0.373E-01
DAV:  41    -0.656107456707E+03    0.16352E-02   -0.24907E-03 17792   0.616E-02    0.172E-01
DAV:  42    -0.656107673989E+03   -0.21728E-03   -0.97706E-04 17728   0.472E-02    0.141E-01
DAV:  43    -0.656107816726E+03   -0.14274E-03   -0.41271E-04 16520   0.325E-02    0.130E-01
DAV:  44    -0.656108355188E+03   -0.53846E-03   -0.61624E-04 17792   0.326E-02    0.183E-01
DAV:  45    -0.656108765456E+03   -0.41027E-03   -0.42005E-04 17952   0.274E-02    0.208E-01
DAV:  46    -0.656108351128E+03    0.41433E-03   -0.16091E-04 16760   0.236E-02    0.137E-01
DAV:  47    -0.656108091043E+03    0.26008E-03   -0.30772E-04 17752   0.254E-02    0.460E-02
DAV:  48    -0.656108078815E+03    0.12228E-04   -0.97691E-05 17080   0.160E-02    0.256E-02
DAV:  49    -0.656108110081E+03   -0.31265E-04   -0.58246E-05 15736   0.139E-02    0.380E-02
DAV:  50    -0.656108099341E+03    0.10740E-04   -0.23148E-05 11464   0.962E-03    0.240E-02
DAV:  51    -0.656108097131E+03    0.22095E-05   -0.10158E-05  7776   0.705E-03
   1 F= -.65610810E+03 E0= -.65598434E+03  d E =-.247514E+00

DISTANCE=0.500
E_alpha= -400.244466  E_beta= -255.797381  E_total= -397.223026 
W_seq=258.818821

DISTANCE=1.000
E_alpha= -400.239946  E_beta= -255.797256  E_total= -613.611001 
W_seq=42.426201

DISTANCE=1.500
E_alpha= -400.238748  E_beta= -255.797066  E_total= -675.306536 
W_seq=-19.270722

DISTANCE=2.000
E_alpha= -400.237094  E_beta= -255.797254  E_total= -682.733512 
W_seq=-26.699164

DISTANCE=2.500
E_alpha= -400.238388  E_beta= -255.797320  E_total= -679.361105 
W_seq=-23.325397

DISTANCE=3.000
E_alpha= -400.238245  E_beta= -255.797237  E_total= -673.100748 
W_seq=-17.065266

DISTANCE=3.500
E_alpha= -400.237890  E_beta= -255.797365  E_total= -667.086314 
W_seq=-11.051059

DISTANCE=4.000
E_alpha= -400.236472  E_beta= -255.796905  E_total= -662.670765 
W_seq=-6.637388

DISTANCE=4.500
E_alpha= -400.237785  E_beta= -255.797422  E_total= -659.817367 
W_seq=-3.782160

DISTANCE=5.000
E_alpha= -400.237009  E_beta= -255.797101  E_total= -658.092569 
W_seq=-2.058459

DISTANCE=5.500
E_alpha= -400.237603  E_beta= -255.797136  E_total= -657.114603 
W_seq=-1.079864

DISTANCE=6.000
E_alpha= -400.237570  E_beta= -255.797153  E_total= -656.600046 
W_seq=-0.565323

DISTANCE=6.500
E_alpha= -400.238009  E_beta= -255.797095  E_total= -656.352676 
W_seq=-0.317572

DISTANCE=7.000
E_alpha= -400.238007  E_beta= -255.796787  E_total= -656.239257 
W_seq=-0.204463

DISTANCE=7.500
E_alpha= -400.237568  E_beta= -255.796937  E_total= -656.184961 
W_seq=-0.150456

DISTANCE=8.000
E_alpha= -400.237675  E_beta= -255.796938  E_total= -656.155772 
W_seq=-0.121159

DISTANCE=8.500
E_alpha= -400.237728  E_beta= -255.796952  E_total= -656.137667 
W_seq=-0.102987

DISTANCE=9.000
E_alpha= -400.236293  E_beta= -255.797003  E_total= -656.123670 
W_seq=-0.090374

DISTANCE=9.500
E_alpha= -400.237644  E_beta= -255.797064  E_total= -656.115708 
W_seq=-0.081000

DISTANCE=10.000
E_alpha= -400.237255  E_beta= -255.797116  E_total= -656.108097 
W_seq=-0.073726

