  67  67   0   0
  0.1686261E+02  0.6309760E-09  0.9464640E-09  0.1891833E-08  0.5000000E-15
  1.000000000000000E-004
  CAR 
 unknown system                          
      4.30735607     -5.32618434  301      3.03757735      1.00000000
     -5.326  0.0000E+00  0.0000E+00
     -5.294  0.0000E+00  0.0000E+00
     -5.262  0.0000E+00  0.0000E+00
     -5.230 -0.1166E-29 -0.3743E-31
     -5.198 -0.2277E-25 -0.7312E-27
     -5.166 -0.1940E-21 -0.6229E-23
     -5.134 -0.7203E-18 -0.2314E-19
     -5.101 -0.1129E-14 -0.3627E-16
     -5.069 -0.7886E-12 -0.2536E-13
     -5.037 -0.2391E-09 -0.7703E-11
     -5.005 -0.3130E-07 -0.1013E-08
     -4.973 -0.1749E-05 -0.5718E-07
     -4.941 -0.4047E-04 -0.1357E-05
     -4.909 -0.3520E-03 -0.1266E-04
     -4.877 -0.6789E-03 -0.3446E-04
     -4.845  0.3196E-02  0.6817E-04
     -4.812  0.1281E-01  0.4795E-03
     -4.780  0.2234E-01  0.1197E-02
     -4.748  0.3162E-01  0.2212E-02
     -4.716  0.2117E-01  0.2892E-02
     -4.684  0.6579E-02  0.3103E-02
     -4.652  0.2177E-01  0.3802E-02
     -4.620  0.2959E-01  0.4752E-02
     -4.588  0.9814E-02  0.5068E-02
     -4.556 -0.1194E-02  0.5029E-02
     -4.523 -0.8129E-03  0.5003E-02
     -4.491 -0.9300E-04  0.5000E-02
     -4.459 -0.3809E-05  0.5000E-02
     -4.427 -0.6276E-07  0.5000E-02
     -4.395 -0.4331E-09  0.5000E-02
     -4.363 -0.1274E-11  0.5000E-02
     -4.331 -0.1613E-14  0.5000E-02
     -4.299  0.0000E+00  0.5000E-02
     -4.266  0.0000E+00  0.5000E-02
     -4.234  0.0000E+00  0.5000E-02
     -4.202  0.0000E+00  0.5000E-02
     -4.170  0.0000E+00  0.5000E-02
     -4.138  0.0000E+00  0.5000E-02
     -4.106  0.0000E+00  0.5000E-02
     -4.074  0.0000E+00  0.5000E-02
     -4.042  0.0000E+00  0.5000E-02
     -4.010  0.0000E+00  0.5000E-02
     -3.977  0.0000E+00  0.5000E-02
     -3.945  0.0000E+00  0.5000E-02
     -3.913  0.0000E+00  0.5000E-02
     -3.881  0.0000E+00  0.5000E-02
     -3.849  0.0000E+00  0.5000E-02
     -3.817  0.0000E+00  0.5000E-02
     -3.785  0.0000E+00  0.5000E-02
     -3.753  0.0000E+00  0.5000E-02
     -3.721  0.0000E+00  0.5000E-02
     -3.688  0.0000E+00  0.5000E-02
     -3.656  0.0000E+00  0.5000E-02
     -3.624  0.0000E+00  0.5000E-02
     -3.592  0.0000E+00  0.5000E-02
     -3.560  0.0000E+00  0.5000E-02
     -3.528  0.0000E+00  0.5000E-02
     -3.496  0.0000E+00  0.5000E-02
     -3.464  0.0000E+00  0.5000E-02
     -3.432  0.0000E+00  0.5000E-02
     -3.399  0.0000E+00  0.5000E-02
     -3.367  0.0000E+00  0.5000E-02
     -3.335  0.0000E+00  0.5000E-02
     -3.303  0.0000E+00  0.5000E-02
     -3.271 -0.7683E-32  0.5000E-02
     -3.239 -0.2197E-27  0.5000E-02
     -3.207 -0.2739E-23  0.5000E-02
     -3.175 -0.1487E-19  0.5000E-02
     -3.143 -0.3393E-16  0.5000E-02
     -3.110 -0.3458E-13  0.5000E-02
     -3.078 -0.1511E-10  0.5000E-02
     -3.046 -0.2820E-08  0.5000E-02
     -3.014 -0.2214E-06  0.5000E-02
     -2.982 -0.7076E-05  0.5000E-02
     -2.950 -0.8470E-04  0.4997E-02
     -2.918 -0.2602E-03  0.4989E-02
     -2.886  0.8321E-03  0.5015E-02
     -2.854  0.4338E-02  0.5155E-02
     -2.821  0.4721E-02  0.5306E-02
     -2.789  0.1153E-02  0.5343E-02
     -2.757 -0.6699E-03  0.5322E-02
     -2.725 -0.7102E-03  0.5299E-02
     -2.693  0.4788E-02  0.5453E-02
     -2.661  0.1579E-01  0.5960E-02
     -2.629  0.1602E-01  0.6474E-02
     -2.597  0.5982E-02  0.6666E-02
     -2.565  0.1018E-02  0.6699E-02
     -2.532  0.3510E-02  0.6812E-02
     -2.500  0.9592E-02  0.7120E-02
     -2.468  0.1958E-01  0.7749E-02
     -2.436  0.2124E-01  0.8431E-02
     -2.404  0.1130E-01  0.8794E-02
     -2.372  0.8182E-02  0.9056E-02
     -2.340  0.1132E-01  0.9420E-02
     -2.308  0.1289E-01  0.9834E-02
     -2.276  0.1130E-01  0.1020E-01
     -2.243  0.3687E-02  0.1031E-01
     -2.211  0.1868E-02  0.1037E-01
     -2.179  0.1469E-01  0.1085E-01
     -2.147  0.2341E-01  0.1160E-01
     -2.115  0.1231E-01  0.1199E-01
     -2.083 -0.7950E-04  0.1199E-01
     -2.051 -0.7487E-04  0.1199E-01
     -2.019  0.1492E-01  0.1247E-01
     -1.987  0.3103E-01  0.1346E-01
     -1.954  0.2585E-01  0.1429E-01
     -1.922  0.1823E-01  0.1488E-01
     -1.890  0.2495E-01  0.1568E-01
     -1.858  0.2987E-01  0.1664E-01
     -1.826  0.2066E-01  0.1730E-01
     -1.794  0.1017E-01  0.1763E-01
     -1.762  0.1033E-01  0.1796E-01
     -1.730  0.2207E-01  0.1867E-01
     -1.698  0.3182E-01  0.1969E-01
     -1.665  0.2704E-01  0.2056E-01
     -1.633  0.1241E-01  0.2096E-01
     -1.601  0.1996E-02  0.2102E-01
     -1.569  0.3971E-02  0.2115E-01
     -1.537  0.1735E-01  0.2171E-01
     -1.505  0.3219E-01  0.2274E-01
     -1.473  0.3840E-01  0.2397E-01
     -1.441  0.2806E-01  0.2488E-01
     -1.409  0.1217E-01  0.2527E-01
     -1.376  0.1012E-01  0.2559E-01
     -1.344  0.2431E-01  0.2637E-01
     -1.312  0.2989E-01  0.2733E-01
     -1.280  0.1997E-01  0.2797E-01
     -1.248  0.2306E-01  0.2871E-01
     -1.216  0.3595E-01  0.2987E-01
     -1.184  0.3419E-01  0.3097E-01
     -1.152  0.3071E-01  0.3195E-01
     -1.120  0.3005E-01  0.3292E-01
     -1.087  0.1777E-01  0.3349E-01
     -1.055  0.1550E-01  0.3399E-01
     -1.023  0.2971E-01  0.3494E-01
     -0.991  0.4153E-01  0.3627E-01
     -0.959  0.4290E-01  0.3765E-01
     -0.927  0.2862E-01  0.3857E-01
     -0.895  0.2677E-01  0.3943E-01
     -0.863  0.4199E-01  0.4078E-01
     -0.831  0.4430E-01  0.4220E-01
     -0.798  0.3324E-01  0.4327E-01
     -0.766  0.3014E-01  0.4423E-01
     -0.734  0.2794E-01  0.4513E-01
     -0.702  0.2938E-01  0.4608E-01
     -0.670  0.2779E-01  0.4697E-01
     -0.638  0.2215E-01  0.4768E-01
     -0.606  0.3517E-01  0.4881E-01
     -0.574  0.4297E-01  0.5019E-01
     -0.542  0.4236E-01  0.5155E-01
     -0.509  0.4391E-01  0.5296E-01
     -0.477  0.4192E-01  0.5430E-01
     -0.445  0.3416E-01  0.5540E-01
     -0.413  0.3947E-01  0.5667E-01
     -0.381  0.4684E-01  0.5817E-01
     -0.349  0.3563E-01  0.5932E-01
     -0.317  0.2647E-01  0.6017E-01
     -0.285  0.3303E-01  0.6123E-01
     -0.253  0.4000E-01  0.6251E-01
     -0.220  0.4493E-01  0.6396E-01
     -0.188  0.5216E-01  0.6563E-01
     -0.156  0.5722E-01  0.6747E-01
     -0.124  0.7381E-01  0.6984E-01
     -0.092  0.6645E-01  0.7197E-01
     -0.060  0.4763E-01  0.7350E-01
     -0.028  0.4965E-01  0.7510E-01
      0.004  0.4788E-01  0.7663E-01
      0.036  0.5228E-01  0.7831E-01
      0.069  0.7819E-01  0.8082E-01
      0.101  0.8973E-01  0.8370E-01
      0.133  0.7525E-01  0.8612E-01
      0.165  0.6585E-01  0.8824E-01
      0.197  0.5985E-01  0.9016E-01
      0.229  0.5920E-01  0.9206E-01
      0.261  0.6943E-01  0.9429E-01
      0.293  0.6040E-01  0.9623E-01
      0.325  0.5755E-01  0.9808E-01
      0.358  0.9916E-01  0.1013E+00
      0.390  0.1437E+00  0.1059E+00
      0.422  0.1324E+00  0.1101E+00
      0.454  0.9902E-01  0.1133E+00
      0.486  0.1099E+00  0.1168E+00
      0.518  0.1368E+00  0.1212E+00
      0.550  0.1384E+00  0.1257E+00
      0.582  0.1479E+00  0.1304E+00
      0.614  0.1622E+00  0.1356E+00
      0.647  0.1464E+00  0.1403E+00
      0.679  0.1288E+00  0.1445E+00
      0.711  0.1413E+00  0.1490E+00
      0.743  0.1603E+00  0.1541E+00
      0.775  0.1650E+00  0.1594E+00
      0.807  0.1707E+00  0.1649E+00
      0.839  0.1763E+00  0.1706E+00
      0.871  0.1702E+00  0.1761E+00
      0.904  0.1737E+00  0.1816E+00
      0.936  0.1814E+00  0.1875E+00
      0.968  0.1855E+00  0.1934E+00
      1.000  0.1881E+00  0.1995E+00
      1.032  0.2041E+00  0.2060E+00
      1.064  0.2334E+00  0.2135E+00
      1.096  0.2404E+00  0.2212E+00
      1.128  0.2347E+00  0.2288E+00
      1.160  0.2132E+00  0.2356E+00
      1.193  0.1996E+00  0.2420E+00
      1.225  0.1989E+00  0.2484E+00
      1.257  0.2019E+00  0.2549E+00
      1.289  0.2029E+00  0.2614E+00
      1.321  0.1931E+00  0.2676E+00
      1.353  0.2083E+00  0.2743E+00
      1.385  0.2110E+00  0.2811E+00
      1.417  0.1894E+00  0.2871E+00
      1.449  0.2133E+00  0.2940E+00
      1.482  0.2325E+00  0.3015E+00
      1.514  0.1922E+00  0.3076E+00
      1.546  0.1557E+00  0.3126E+00
      1.578  0.1677E+00  0.3180E+00
      1.610  0.1836E+00  0.3239E+00
      1.642  0.1745E+00  0.3295E+00
      1.674  0.1751E+00  0.3351E+00
      1.706  0.1753E+00  0.3408E+00
      1.738  0.1749E+00  0.3464E+00
      1.771  0.1679E+00  0.3518E+00
      1.803  0.1669E+00  0.3571E+00
      1.835  0.1782E+00  0.3629E+00
      1.867  0.1876E+00  0.3689E+00
      1.899  0.1889E+00  0.3749E+00
      1.931  0.1759E+00  0.3806E+00
      1.963  0.1601E+00  0.3857E+00
      1.995  0.1542E+00  0.3907E+00
      2.027  0.1715E+00  0.3962E+00
      2.060  0.1868E+00  0.4022E+00
      2.092  0.1836E+00  0.4081E+00
      2.124  0.1982E+00  0.4145E+00
      2.156  0.2143E+00  0.4213E+00
      2.188  0.2256E+00  0.4286E+00
      2.220  0.2298E+00  0.4360E+00
      2.252  0.2122E+00  0.4428E+00
      2.284  0.2102E+00  0.4495E+00
      2.316  0.2379E+00  0.4572E+00
      2.349  0.2649E+00  0.4657E+00
      2.381  0.2923E+00  0.4751E+00
      2.413  0.3046E+00  0.4848E+00
      2.445  0.3038E+00  0.4946E+00
      2.477  0.3160E+00  0.5047E+00
      2.509  0.3228E+00  0.5151E+00
      2.541  0.3154E+00  0.5252E+00
      2.573  0.2896E+00  0.5345E+00
      2.605  0.2695E+00  0.5432E+00
      2.638  0.2758E+00  0.5520E+00
      2.670  0.2723E+00  0.5608E+00
      2.702  0.2719E+00  0.5695E+00
      2.734  0.2784E+00  0.5785E+00
      2.766  0.2826E+00  0.5875E+00
      2.798  0.2997E+00  0.5972E+00
      2.830  0.3126E+00  0.6072E+00
      2.862  0.3140E+00  0.6173E+00
      2.894  0.3064E+00  0.6271E+00
      2.927  0.2864E+00  0.6363E+00
      2.959  0.2857E+00  0.6455E+00
      2.991  0.3056E+00  0.6553E+00
      3.023  0.3140E+00  0.6654E+00
      3.055  0.3138E+00  0.6755E+00
      3.087  0.3049E+00  0.6853E+00
      3.119  0.2814E+00  0.6943E+00
      3.151  0.2727E+00  0.7030E+00
      3.183  0.2706E+00  0.7117E+00
      3.216  0.2679E+00  0.7203E+00
      3.248  0.2950E+00  0.7298E+00
      3.280  0.3096E+00  0.7398E+00
      3.312  0.3071E+00  0.7496E+00
      3.344  0.2944E+00  0.7591E+00
      3.376  0.2886E+00  0.7683E+00
      3.408  0.3007E+00  0.7780E+00
      3.440  0.2910E+00  0.7873E+00
      3.472  0.2719E+00  0.7961E+00
      3.505  0.2360E+00  0.8036E+00
      3.537  0.1913E+00  0.8098E+00
      3.569  0.1707E+00  0.8153E+00
      3.601  0.1670E+00  0.8206E+00
      3.633  0.1665E+00  0.8260E+00
      3.665  0.1558E+00  0.8310E+00
      3.697  0.1175E+00  0.8348E+00
      3.729  0.6690E-01  0.8369E+00
      3.761  0.4582E-01  0.8384E+00
      3.794  0.3579E-01  0.8395E+00
      3.826  0.1523E-01  0.8400E+00
      3.858  0.1062E-02  0.8400E+00
      3.890 -0.1145E-02  0.8400E+00
      3.922 -0.3081E-03  0.8400E+00
      3.954 -0.2812E-04  0.8400E+00
      3.986 -0.1068E-05  0.8400E+00
      4.018 -0.1769E-07  0.8400E+00
      4.050 -0.1289E-09  0.8400E+00
      4.083 -0.4136E-12  0.8400E+00
      4.115 -0.5831E-15  0.8400E+00
      4.147  0.0000E+00  0.8400E+00
      4.179  0.0000E+00  0.8400E+00
      4.211  0.0000E+00  0.8400E+00
      4.243  0.0000E+00  0.8400E+00
      4.275  0.0000E+00  0.8400E+00
      4.307  0.0000E+00  0.8400E+00
