Distance=0.500
 running on   16 total cores
 distrk:  each k-point on    8 cores,    2 groups
 distr:  one band on    4 cores,    2 groups
 using from now: INCAR     
 vasp.5.4.4.18Apr17-6-g9f103f2a35 (build Nov 27 2019 20:08:17) complex          
  
 POSCAR found type information on POSCAR  Ti
 POSCAR found :  1 types and      32 ions
 scaLAPACK will be used

 ----------------------------------------------------------------------------- 
|                                                                             |
|           W    W    AA    RRRRR   N    N  II  N    N   GGGG   !!!           |
|           W    W   A  A   R    R  NN   N  II  NN   N  G    G  !!!           |
|           W    W  A    A  R    R  N N  N  II  N N  N  G       !!!           |
|           W WW W  AAAAAA  RRRRR   N  N N  II  N  N N  G  GGG   !            |
|           WW  WW  A    A  R   R   N   NN  II  N   NN  G    G                |
|           W    W  A    A  R    R  N    N  II  N    N   GGGG   !!!           |
|                                                                             |
|      You have enabled k-point parallelism (KPAR>1).                         |
|      This developmental code was originally  written by Paul Kent at ORNL,  |
|      and carefully double checked in Vienna.                                |
|      GW as well as linear response parallelism added by Martijn Marsman     |
|      and Georg Kresse.                                                      |
|      Carefully verify results versus KPAR=1.                                |
|      Report problems to Paul Kent and Vienna.                               |
|                                                                             |
 ----------------------------------------------------------------------------- 

 LDA part: xc-table for Pade appr. of Perdew
 POSCAR found type information on POSCAR  Ti
 POSCAR found :  1 types and      32 ions
 POSCAR, INCAR and KPOINTS ok, starting setup
 FFT: planning ...
 WAVECAR not read
 WARNING: random wavefunctions but no delay for mixing, default for NELMDL
 entering main loop
       N       E                     dE             d eps       ncg     rms          rms(c)
DAV:   1     0.571888290475E+03    0.57189E+03   -0.36379E+04  1968   0.112E+03
DAV:   2    -0.167578927973E+03   -0.73947E+03   -0.71230E+03  1968   0.246E+02
DAV:   3    -0.277816401109E+03   -0.11024E+03   -0.10421E+03  3056   0.860E+01
DAV:   4    -0.286602496071E+03   -0.87861E+01   -0.81865E+01  3040   0.258E+01
DAV:   5    -0.287120682600E+03   -0.51819E+00   -0.49317E+00  3248   0.497E+00    0.670E+01
DAV:   6    -0.431253722779E+03   -0.14413E+03   -0.24095E+03  3672   0.975E+01    0.851E+01
DAV:   7    -0.244904095891E+03    0.18635E+03   -0.24329E+03  3432   0.152E+02    0.296E+01
DAV:   8    -0.256790706686E+03   -0.11887E+02   -0.55748E+02  3068   0.711E+01    0.324E+01
DAV:   9    -0.235684945754E+03    0.21106E+02   -0.11579E+02  3022   0.330E+01    0.193E+01
DAV:  10    -0.235204267433E+03    0.48068E+00   -0.12424E+01  3248   0.793E+00    0.171E+01
DAV:  11    -0.237070673182E+03   -0.18664E+01   -0.36720E+00  3264   0.475E+00    0.198E+01
DAV:  12    -0.231327631663E+03    0.57430E+01   -0.13662E+01  2474   0.149E+01    0.807E+00
DAV:  13    -0.230277517232E+03    0.10501E+01   -0.46597E+00  3240   0.657E+00    0.479E+00
DAV:  14    -0.230186340929E+03    0.91176E-01   -0.12378E+00  3144   0.317E+00    0.392E+00
DAV:  15    -0.230309572868E+03   -0.12323E+00   -0.97779E-01  3206   0.330E+00    0.464E+00
DAV:  16    -0.229995726721E+03    0.31385E+00   -0.17838E+00  3104   0.356E+00    0.125E+00
DAV:  17    -0.230002638220E+03   -0.69115E-02   -0.12224E-01  3016   0.113E+00    0.690E-01
DAV:  18    -0.230001312168E+03    0.13261E-02   -0.22941E-02  3128   0.444E-01    0.351E-01
DAV:  19    -0.230006488793E+03   -0.51766E-02   -0.12904E-02  2888   0.303E-01    0.981E-02
DAV:  20    -0.230011068875E+03   -0.45801E-02   -0.74858E-03  3112   0.234E-01    0.206E-01
DAV:  21    -0.230011949652E+03   -0.88078E-03   -0.87877E-03  3040   0.260E-01    0.121E-01
DAV:  22    -0.230012020642E+03   -0.70991E-04   -0.17926E-03  3016   0.115E-01    0.495E-02
DAV:  23    -0.230012081731E+03   -0.61089E-04   -0.18116E-04  2480   0.490E-02    0.300E-02
DAV:  24    -0.230012082112E+03   -0.38120E-06   -0.56917E-05  2904   0.214E-02    0.139E-02
DAV:  25    -0.230012083237E+03   -0.11250E-05   -0.10972E-05  1784   0.126E-02
   1 F= -.23001208E+03 E0= -.22995419E+03  d E =-.115794E+00
 running on   16 total cores
 distrk:  each k-point on    8 cores,    2 groups
 distr:  one band on    4 cores,    2 groups
 using from now: INCAR     
 vasp.5.4.4.18Apr17-6-g9f103f2a35 (build Nov 27 2019 20:08:17) complex          
  
 POSCAR found type information on POSCAR  Ti
 POSCAR found :  1 types and      36 ions
 scaLAPACK will be used

 ----------------------------------------------------------------------------- 
|                                                                             |
|           W    W    AA    RRRRR   N    N  II  N    N   GGGG   !!!           |
|           W    W   A  A   R    R  NN   N  II  NN   N  G    G  !!!           |
|           W    W  A    A  R    R  N N  N  II  N N  N  G       !!!           |
|           W WW W  AAAAAA  RRRRR   N  N N  II  N  N N  G  GGG   !            |
|           WW  WW  A    A  R   R   N   NN  II  N   NN  G    G                |
|           W    W  A    A  R    R  N    N  II  N    N   GGGG   !!!           |
|                                                                             |
|      You have enabled k-point parallelism (KPAR>1).                         |
|      This developmental code was originally  written by Paul Kent at ORNL,  |
|      and carefully double checked in Vienna.                                |
|      GW as well as linear response parallelism added by Martijn Marsman     |
|      and Georg Kresse.                                                      |
|      Carefully verify results versus KPAR=1.                                |
|      Report problems to Paul Kent and Vienna.                               |
|                                                                             |
 ----------------------------------------------------------------------------- 

 LDA part: xc-table for Pade appr. of Perdew
 POSCAR found type information on POSCAR  Ti
 POSCAR found :  1 types and      36 ions
 POSCAR, INCAR and KPOINTS ok, starting setup
 FFT: planning ...
 WAVECAR not read
 WARNING: random wavefunctions but no delay for mixing, default for NELMDL
 entering main loop
       N       E                     dE             d eps       ncg     rms          rms(c)
DAV:   1     0.707981664062E+03    0.70798E+03   -0.42000E+04  2208   0.115E+03
DAV:   2    -0.192642062106E+03   -0.90062E+03   -0.86487E+03  2208   0.256E+02
DAV:   3    -0.325257823084E+03   -0.13262E+03   -0.12167E+03  3192   0.940E+01
DAV:   4    -0.334273967932E+03   -0.90161E+01   -0.83228E+01  3144   0.285E+01
DAV:   5    -0.334738718821E+03   -0.46475E+00   -0.44159E+00  3528   0.517E+00    0.824E+01
DAV:   6    -0.544727723291E+03   -0.20999E+03   -0.30182E+03  4172   0.969E+01    0.111E+02
DAV:   7    -0.284447007954E+03    0.26028E+03   -0.42319E+03  4076   0.161E+02    0.352E+01
DAV:   8    -0.280112830569E+03    0.43342E+01   -0.47464E+02  3236   0.732E+01    0.363E+01
DAV:   9    -0.274507893454E+03    0.56049E+01   -0.34591E+01  3696   0.141E+01    0.287E+01
DAV:  10    -0.276319112020E+03   -0.18112E+01   -0.28542E+00  3560   0.394E+00    0.308E+01
DAV:  11    -0.266074498591E+03    0.10245E+02   -0.15479E+01  3136   0.137E+01    0.153E+01
DAV:  12    -0.264199468378E+03    0.18750E+01   -0.27024E+00  3568   0.504E+00    0.105E+01
DAV:  13    -0.262463613518E+03    0.17359E+01   -0.62673E+00  2832   0.921E+00    0.212E+00
DAV:  14    -0.262435742388E+03    0.27871E-01   -0.91160E-01  3504   0.240E+00    0.159E+00
DAV:  15    -0.262449201009E+03   -0.13459E-01   -0.20420E-01  3296   0.132E+00    0.109E+00
DAV:  16    -0.262468640717E+03   -0.19440E-01   -0.44891E-01  3440   0.180E+00    0.139E+00
DAV:  17    -0.262453217074E+03    0.15424E-01   -0.83142E-02  3264   0.963E-01    0.503E-01
DAV:  18    -0.262472665470E+03   -0.19448E-01   -0.19853E-01  3380   0.131E+00    0.950E-01
DAV:  19    -0.262464333402E+03    0.83321E-02   -0.28121E-02  3136   0.503E-01    0.401E-01
DAV:  20    -0.262462601811E+03    0.17316E-02   -0.55936E-03  3480   0.218E-01    0.184E-01
DAV:  21    -0.262462147375E+03    0.45444E-03   -0.29654E-03  3560   0.158E-01    0.300E-02
DAV:  22    -0.262462208464E+03   -0.61089E-04   -0.22816E-04  2744   0.486E-02    0.201E-02
DAV:  23    -0.262462213130E+03   -0.46655E-05   -0.40695E-05  2824   0.198E-02
   1 F= -.26246221E+03 E0= -.26240966E+03  d E =-.105103E+00
 running on   16 total cores
 distrk:  each k-point on    8 cores,    2 groups
 distr:  one band on    4 cores,    2 groups
 using from now: INCAR     
 vasp.5.4.4.18Apr17-6-g9f103f2a35 (build Nov 27 2019 20:08:17) complex          
  
 POSCAR found type information on POSCAR  Ti
 POSCAR found :  1 types and      68 ions
 scaLAPACK will be used

 ----------------------------------------------------------------------------- 
|                                                                             |
|           W    W    AA    RRRRR   N    N  II  N    N   GGGG   !!!           |
|           W    W   A  A   R    R  NN   N  II  NN   N  G    G  !!!           |
|           W    W  A    A  R    R  N N  N  II  N N  N  G       !!!           |
|           W WW W  AAAAAA  RRRRR   N  N N  II  N  N N  G  GGG   !            |
|           WW  WW  A    A  R   R   N   NN  II  N   NN  G    G                |
|           W    W  A    A  R    R  N    N  II  N    N   GGGG   !!!           |
|                                                                             |
|      You have enabled k-point parallelism (KPAR>1).                         |
|      This developmental code was originally  written by Paul Kent at ORNL,  |
|      and carefully double checked in Vienna.                                |
|      GW as well as linear response parallelism added by Martijn Marsman     |
|      and Georg Kresse.                                                      |
|      Carefully verify results versus KPAR=1.                                |
|      Report problems to Paul Kent and Vienna.                               |
|                                                                             |
 ----------------------------------------------------------------------------- 

 LDA part: xc-table for Pade appr. of Perdew
 POSCAR found type information on POSCAR  Ti
 POSCAR found :  1 types and      68 ions

 ----------------------------------------------------------------------------- 
|                                                                             |
|           W    W    AA    RRRRR   N    N  II  N    N   GGGG   !!!           |
|           W    W   A  A   R    R  NN   N  II  NN   N  G    G  !!!           |
|           W    W  A    A  R    R  N N  N  II  N N  N  G       !!!           |
|           W WW W  AAAAAA  RRRRR   N  N N  II  N  N N  G  GGG   !            |
|           WW  WW  A    A  R   R   N   NN  II  N   NN  G    G                |
|           W    W  A    A  R    R  N    N  II  N    N   GGGG   !!!           |
|                                                                             |
|      The distance between some ions is very small                           |
|      please check the nearest neigbor list in the OUTCAR file               |
|          I HOPE YOU KNOW, WHAT YOU ARE  DOING                               |
|                                                                             |
 ----------------------------------------------------------------------------- 

 POSCAR, INCAR and KPOINTS ok, starting setup
 FFT: planning ...
 WAVECAR not read
 WARNING: random wavefunctions but no delay for mixing, default for NELMDL
 entering main loop
       N       E                     dE             d eps       ncg     rms          rms(c)
DAV:   1     0.173265902080E+04    0.17327E+04   -0.81562E+04  4128   0.129E+03
DAV:   2    -0.571127094386E+02   -0.17898E+04   -0.17372E+04  4128   0.314E+02
DAV:   3    -0.295322134326E+03   -0.23821E+03   -0.22346E+03  5968   0.116E+02
DAV:   4    -0.313617955186E+03   -0.18296E+02   -0.17316E+02  5680   0.320E+01
DAV:   5    -0.314717025631E+03   -0.10991E+01   -0.10649E+01  6408   0.631E+00    0.164E+02
DAV:   6    -0.959978895356E+03   -0.64526E+03   -0.17292E+04  7368   0.406E+02    0.130E+02
DAV:   7    -0.347217667635E+03    0.61276E+03   -0.67778E+03  5992   0.259E+02    0.889E+01
DAV:   8    -0.170012782403E+03    0.17720E+03   -0.17929E+03  7404   0.125E+02    0.728E+01
DAV:   9    -0.103106400137E+03    0.66906E+02   -0.54433E+02  6952   0.633E+01    0.749E+01
DAV:  10    -0.150298581892E+03   -0.47192E+02   -0.13973E+02  6832   0.314E+01    0.953E+01
DAV:  11    -0.174691935671E+03   -0.24393E+02   -0.11562E+02  7096   0.318E+01    0.804E+01
DAV:  12    -0.127211800436E+03    0.47480E+02   -0.26935E+02  7264   0.582E+01    0.588E+01
DAV:  13    -0.745321103060E+02    0.52680E+02   -0.19808E+02  7256   0.442E+01    0.302E+01
DAV:  14    -0.695069311809E+02    0.50252E+01   -0.52387E+01  6768   0.211E+01    0.195E+01
DAV:  15    -0.690978097903E+02    0.40912E+00   -0.66956E+00  6080   0.726E+00    0.177E+01
DAV:  16    -0.694964046176E+02   -0.39859E+00   -0.19874E+00  6936   0.450E+00    0.174E+01
DAV:  17    -0.692619375644E+02    0.23447E+00   -0.14253E+00  6440   0.328E+00    0.156E+01
DAV:  18    -0.688771669596E+02    0.38477E+00   -0.46040E+00  6624   0.631E+00    0.118E+01
DAV:  19    -0.684633876296E+02    0.41378E+00   -0.54997E+00  6160   0.663E+00    0.703E+00
DAV:  20    -0.683592576888E+02    0.10413E+00   -0.37259E+00  6440   0.549E+00    0.605E+00
DAV:  21    -0.683904325431E+02   -0.31175E-01   -0.73390E-01  6880   0.264E+00    0.527E+00
DAV:  22    -0.683041820021E+02    0.86251E-01   -0.14248E-01  6480   0.121E+00    0.451E+00
DAV:  23    -0.681328493250E+02    0.17133E+00   -0.74486E-01  6776   0.255E+00    0.250E+00
DAV:  24    -0.681010155013E+02    0.31834E-01   -0.32148E-01  6904   0.159E+00    0.154E+00
DAV:  25    -0.680959860084E+02    0.50295E-02   -0.63903E-02  5768   0.762E-01    0.974E-01
DAV:  26    -0.680918212272E+02    0.41648E-02   -0.23079E-02  5992   0.462E-01    0.607E-01
DAV:  27    -0.680907849174E+02    0.10363E-02   -0.18844E-02  6480   0.427E-01    0.415E-01
DAV:  28    -0.680898773435E+02    0.90757E-03   -0.14613E-02  6632   0.382E-01    0.250E-01
DAV:  29    -0.680896250694E+02    0.25227E-03   -0.46773E-03  6352   0.190E-01    0.176E-01
DAV:  30    -0.680895447952E+02    0.80274E-04   -0.12056E-03  6824   0.110E-01    0.145E-01
DAV:  31    -0.680893711839E+02    0.17361E-03   -0.77345E-04  6680   0.842E-02    0.996E-02
DAV:  32    -0.680893529244E+02    0.18260E-04   -0.17425E-04  6168   0.323E-02    0.717E-02
DAV:  33    -0.680893454606E+02    0.74637E-05   -0.53151E-05  5736   0.202E-02    0.420E-02
DAV:  34    -0.680893398650E+02    0.55956E-05   -0.48461E-05  5408   0.178E-02    0.284E-02
DAV:  35    -0.680893378113E+02    0.20537E-05   -0.81022E-06  2840   0.101E-02
   1 F= -.68089338E+02 E0= -.68030191E+02  d E =-.118295E+00
Distance=1.000
 running on   16 total cores
 distrk:  each k-point on    8 cores,    2 groups
 distr:  one band on    4 cores,    2 groups
 using from now: INCAR     
 vasp.5.4.4.18Apr17-6-g9f103f2a35 (build Nov 27 2019 20:08:17) complex          
  
 POSCAR found type information on POSCAR  Ti
 POSCAR found :  1 types and      32 ions
 scaLAPACK will be used

 ----------------------------------------------------------------------------- 
|                                                                             |
|           W    W    AA    RRRRR   N    N  II  N    N   GGGG   !!!           |
|           W    W   A  A   R    R  NN   N  II  NN   N  G    G  !!!           |
|           W    W  A    A  R    R  N N  N  II  N N  N  G       !!!           |
|           W WW W  AAAAAA  RRRRR   N  N N  II  N  N N  G  GGG   !            |
|           WW  WW  A    A  R   R   N   NN  II  N   NN  G    G                |
|           W    W  A    A  R    R  N    N  II  N    N   GGGG   !!!           |
|                                                                             |
|      You have enabled k-point parallelism (KPAR>1).                         |
|      This developmental code was originally  written by Paul Kent at ORNL,  |
|      and carefully double checked in Vienna.                                |
|      GW as well as linear response parallelism added by Martijn Marsman     |
|      and Georg Kresse.                                                      |
|      Carefully verify results versus KPAR=1.                                |
|      Report problems to Paul Kent and Vienna.                               |
|                                                                             |
 ----------------------------------------------------------------------------- 

 LDA part: xc-table for Pade appr. of Perdew
 POSCAR found type information on POSCAR  Ti
 POSCAR found :  1 types and      32 ions
 POSCAR, INCAR and KPOINTS ok, starting setup
 FFT: planning ...
 WAVECAR not read
 entering main loop
       N       E                     dE             d eps       ncg     rms          rms(c)
DAV:   1     0.579856648971E+03    0.57986E+03   -0.36267E+04  1968   0.111E+03
DAV:   2    -0.166014058745E+03   -0.74587E+03   -0.71866E+03  1968   0.245E+02
DAV:   3    -0.277628314252E+03   -0.11161E+03   -0.10539E+03  3072   0.853E+01
DAV:   4    -0.286613049983E+03   -0.89847E+01   -0.83568E+01  3088   0.263E+01
DAV:   5    -0.287119048524E+03   -0.50600E+00   -0.48279E+00  3128   0.513E+00    0.670E+01
DAV:   6    -0.429633316849E+03   -0.14251E+03   -0.23943E+03  3696   0.973E+01    0.849E+01
DAV:   7    -0.246374778922E+03    0.18326E+03   -0.25040E+03  3424   0.153E+02    0.296E+01
DAV:   8    -0.255432743293E+03   -0.90580E+01   -0.53240E+02  3112   0.698E+01    0.319E+01
DAV:   9    -0.235891468798E+03    0.19541E+02   -0.10886E+02  3034   0.319E+01    0.195E+01
DAV:  10    -0.235415344202E+03    0.47612E+00   -0.11581E+01  3264   0.769E+00    0.174E+01
DAV:  11    -0.237174291345E+03   -0.17589E+01   -0.41241E+00  3264   0.493E+00    0.198E+01
DAV:  12    -0.233271571872E+03    0.39027E+01   -0.64854E+00  2726   0.975E+00    0.124E+01
DAV:  13    -0.230515084655E+03    0.27565E+01   -0.78484E+00  3012   0.102E+01    0.587E+00
DAV:  14    -0.230226390132E+03    0.28869E+00   -0.22825E+00  3264   0.383E+00    0.422E+00
DAV:  15    -0.230320807376E+03   -0.94417E-01   -0.10616E+00  2966   0.344E+00    0.490E+00
DAV:  16    -0.230017655061E+03    0.30315E+00   -0.25476E+00  3062   0.413E+00    0.182E+00
DAV:  17    -0.230025311499E+03   -0.76564E-02   -0.16881E-01  3040   0.135E+00    0.139E+00
DAV:  18    -0.229999920786E+03    0.25391E-01   -0.17238E-01  3048   0.117E+00    0.384E-01
DAV:  19    -0.230002591867E+03   -0.26711E-02   -0.24682E-02  3240   0.373E-01    0.227E-01
DAV:  20    -0.230006857245E+03   -0.42654E-02   -0.17500E-02  2912   0.459E-01    0.244E-01
DAV:  21    -0.230008742458E+03   -0.18852E-02   -0.79520E-03  2888   0.286E-01    0.153E-01
DAV:  22    -0.230009711772E+03   -0.96931E-03   -0.26586E-03  2816   0.147E-01    0.499E-02
DAV:  23    -0.230009998663E+03   -0.28689E-03   -0.38572E-04  2712   0.516E-02    0.481E-02
DAV:  24    -0.230009993511E+03    0.51522E-05   -0.12784E-04  3016   0.332E-02    0.195E-02
DAV:  25    -0.230009994621E+03   -0.11098E-05   -0.47519E-05  2600   0.211E-02
   1 F= -.23000999E+03 E0= -.22995216E+03  d E =-.115666E+00
 running on   16 total cores
 distrk:  each k-point on    8 cores,    2 groups
 distr:  one band on    4 cores,    2 groups
 using from now: INCAR     
 vasp.5.4.4.18Apr17-6-g9f103f2a35 (build Nov 27 2019 20:08:17) complex          
  
 POSCAR found type information on POSCAR  Ti
 POSCAR found :  1 types and      36 ions
 scaLAPACK will be used

 ----------------------------------------------------------------------------- 
|                                                                             |
|           W    W    AA    RRRRR   N    N  II  N    N   GGGG   !!!           |
|           W    W   A  A   R    R  NN   N  II  NN   N  G    G  !!!           |
|           W    W  A    A  R    R  N N  N  II  N N  N  G       !!!           |
|           W WW W  AAAAAA  RRRRR   N  N N  II  N  N N  G  GGG   !            |
|           WW  WW  A    A  R   R   N   NN  II  N   NN  G    G                |
|           W    W  A    A  R    R  N    N  II  N    N   GGGG   !!!           |
|                                                                             |
|      You have enabled k-point parallelism (KPAR>1).                         |
|      This developmental code was originally  written by Paul Kent at ORNL,  |
|      and carefully double checked in Vienna.                                |
|      GW as well as linear response parallelism added by Martijn Marsman     |
|      and Georg Kresse.                                                      |
|      Carefully verify results versus KPAR=1.                                |
|      Report problems to Paul Kent and Vienna.                               |
|                                                                             |
 ----------------------------------------------------------------------------- 

 LDA part: xc-table for Pade appr. of Perdew
 POSCAR found type information on POSCAR  Ti
 POSCAR found :  1 types and      36 ions
 POSCAR, INCAR and KPOINTS ok, starting setup
 FFT: planning ...
 WAVECAR not read
 WARNING: random wavefunctions but no delay for mixing, default for NELMDL
 entering main loop
       N       E                     dE             d eps       ncg     rms          rms(c)
DAV:   1     0.718608898670E+03    0.71861E+03   -0.41907E+04  2208   0.114E+03
DAV:   2    -0.193116199968E+03   -0.91173E+03   -0.87516E+03  2208   0.255E+02
DAV:   3    -0.325247189657E+03   -0.13213E+03   -0.12156E+03  3200   0.928E+01
DAV:   4    -0.334268135484E+03   -0.90209E+01   -0.83239E+01  3144   0.287E+01
DAV:   5    -0.334745979696E+03   -0.47784E+00   -0.45410E+00  3528   0.530E+00    0.824E+01
DAV:   6    -0.543295007332E+03   -0.20855E+03   -0.29972E+03  4164   0.967E+01    0.111E+02
DAV:   7    -0.288731214186E+03    0.25456E+03   -0.43352E+03  4104   0.163E+02    0.361E+01
DAV:   8    -0.279821956587E+03    0.89093E+01   -0.47618E+02  3200   0.745E+01    0.366E+01
DAV:   9    -0.274952860994E+03    0.48691E+01   -0.34724E+01  3688   0.133E+01    0.293E+01
DAV:  10    -0.277615063232E+03   -0.26622E+01   -0.39595E+00  3496   0.473E+00    0.322E+01
DAV:  11    -0.264541179712E+03    0.13074E+02   -0.27677E+01  3016   0.184E+01    0.116E+01
DAV:  12    -0.263778513089E+03    0.76267E+00   -0.20818E+00  3576   0.401E+00    0.901E+00
DAV:  13    -0.262671549309E+03    0.11070E+01   -0.25522E+00  2768   0.601E+00    0.407E+00
DAV:  14    -0.262473696526E+03    0.19785E+00   -0.24741E+00  3280   0.506E+00    0.250E+00
DAV:  15    -0.262460096040E+03    0.13600E-01   -0.36923E-01  2996   0.193E+00    0.141E+00
DAV:  16    -0.262478478168E+03   -0.18382E-01   -0.60664E-01  3452   0.204E+00    0.164E+00
DAV:  17    -0.262449995361E+03    0.28483E-01   -0.10844E-01  3248   0.113E+00    0.622E-01
DAV:  18    -0.262452077388E+03   -0.20820E-02   -0.10206E-01  3456   0.100E+00    0.508E-01
DAV:  19    -0.262459537257E+03   -0.74599E-02   -0.79670E-03  2376   0.224E-01    0.271E-01
DAV:  20    -0.262459608733E+03   -0.71476E-04   -0.23676E-03  2960   0.164E-01    0.176E-01
DAV:  21    -0.262460126852E+03   -0.51812E-03   -0.91470E-03  3260   0.310E-01    0.148E-01
DAV:  22    -0.262459889456E+03    0.23740E-03   -0.99899E-04  3272   0.994E-02    0.514E-02
DAV:  23    -0.262459876540E+03    0.12916E-04   -0.38451E-04  3336   0.640E-02    0.178E-02
DAV:  24    -0.262459875906E+03    0.63376E-06   -0.17949E-05  2200   0.141E-02
   1 F= -.26245988E+03 E0= -.26240740E+03  d E =-.104959E+00
 running on   16 total cores
 distrk:  each k-point on    8 cores,    2 groups
 distr:  one band on    4 cores,    2 groups
 using from now: INCAR     
 vasp.5.4.4.18Apr17-6-g9f103f2a35 (build Nov 27 2019 20:08:17) complex          
  
 POSCAR found type information on POSCAR  Ti
 POSCAR found :  1 types and      68 ions
 scaLAPACK will be used

 ----------------------------------------------------------------------------- 
|                                                                             |
|           W    W    AA    RRRRR   N    N  II  N    N   GGGG   !!!           |
|           W    W   A  A   R    R  NN   N  II  NN   N  G    G  !!!           |
|           W    W  A    A  R    R  N N  N  II  N N  N  G       !!!           |
|           W WW W  AAAAAA  RRRRR   N  N N  II  N  N N  G  GGG   !            |
|           WW  WW  A    A  R   R   N   NN  II  N   NN  G    G                |
|           W    W  A    A  R    R  N    N  II  N    N   GGGG   !!!           |
|                                                                             |
|      You have enabled k-point parallelism (KPAR>1).                         |
|      This developmental code was originally  written by Paul Kent at ORNL,  |
|      and carefully double checked in Vienna.                                |
|      GW as well as linear response parallelism added by Martijn Marsman     |
|      and Georg Kresse.                                                      |
|      Carefully verify results versus KPAR=1.                                |
|      Report problems to Paul Kent and Vienna.                               |
|                                                                             |
 ----------------------------------------------------------------------------- 

 LDA part: xc-table for Pade appr. of Perdew
 POSCAR found type information on POSCAR  Ti
 POSCAR found :  1 types and      68 ions

 ----------------------------------------------------------------------------- 
|                                                                             |
|           W    W    AA    RRRRR   N    N  II  N    N   GGGG   !!!           |
|           W    W   A  A   R    R  NN   N  II  NN   N  G    G  !!!           |
|           W    W  A    A  R    R  N N  N  II  N N  N  G       !!!           |
|           W WW W  AAAAAA  RRRRR   N  N N  II  N  N N  G  GGG   !            |
|           WW  WW  A    A  R   R   N   NN  II  N   NN  G    G                |
|           W    W  A    A  R    R  N    N  II  N    N   GGGG   !!!           |
|                                                                             |
|      The distance between some ions is very small                           |
|      please check the nearest neigbor list in the OUTCAR file               |
|          I HOPE YOU KNOW, WHAT YOU ARE  DOING                               |
|                                                                             |
 ----------------------------------------------------------------------------- 

 POSCAR, INCAR and KPOINTS ok, starting setup
 FFT: planning ...
 WAVECAR not read
 WARNING: random wavefunctions but no delay for mixing, default for NELMDL
 entering main loop
       N       E                     dE             d eps       ncg     rms          rms(c)
DAV:   1     0.132318793592E+04    0.13232E+04   -0.79632E+04  4128   0.126E+03
DAV:   2    -0.317106371964E+03   -0.16403E+04   -0.15909E+04  4128   0.290E+02
DAV:   3    -0.547000309165E+03   -0.22989E+03   -0.21330E+03  5816   0.107E+02
DAV:   4    -0.566682792966E+03   -0.19682E+02   -0.18429E+02  6040   0.309E+01
DAV:   5    -0.567669204468E+03   -0.98641E+00   -0.94582E+00  6184   0.581E+00    0.122E+02
DAV:   6    -0.109373296394E+04   -0.52606E+03   -0.94773E+03  6876   0.282E+02    0.115E+02
DAV:   7    -0.843189135831E+03    0.25054E+03   -0.80683E+03  7172   0.219E+02    0.924E+01
DAV:   8    -0.455901008324E+03    0.38729E+03   -0.23592E+03  6532   0.147E+02    0.538E+01
DAV:   9    -0.458922595901E+03   -0.30216E+01   -0.73199E+02  7184   0.641E+01    0.463E+01
DAV:  10    -0.492876946249E+03   -0.33954E+02   -0.29127E+02  7784   0.536E+01    0.524E+01
DAV:  11    -0.451906943355E+03    0.40970E+02   -0.26076E+02  7660   0.521E+01    0.339E+01
DAV:  12    -0.453153719890E+03   -0.12468E+01   -0.38015E+02  6592   0.512E+01    0.302E+01
DAV:  13    -0.443983192384E+03    0.91705E+01   -0.59901E+01  6536   0.186E+01    0.214E+01
DAV:  14    -0.438155805397E+03    0.58274E+01   -0.14259E+01  6600   0.100E+01    0.138E+01
DAV:  15    -0.436421613552E+03    0.17342E+01   -0.88441E+00  6616   0.756E+00    0.907E+00
DAV:  16    -0.436386767512E+03    0.34846E-01   -0.40221E+00  6296   0.546E+00    0.877E+00
DAV:  17    -0.435936742789E+03    0.45002E+00   -0.15545E+00  6544   0.343E+00    0.638E+00
DAV:  18    -0.435799764715E+03    0.13698E+00   -0.51186E+00  6632   0.558E+00    0.454E+00
DAV:  19    -0.435688839480E+03    0.11093E+00   -0.16484E+00  6352   0.316E+00    0.342E+00
DAV:  20    -0.435568630934E+03    0.12021E+00   -0.10316E+00  6496   0.285E+00    0.171E+00
DAV:  21    -0.435547856924E+03    0.20774E-01   -0.35568E-01  6368   0.161E+00    0.122E+00
DAV:  22    -0.435567078530E+03   -0.19222E-01   -0.15485E-01  6536   0.108E+00    0.169E+00
DAV:  23    -0.435534372267E+03    0.32706E-01   -0.10056E-01  6536   0.102E+00    0.665E-01
DAV:  24    -0.435538643996E+03   -0.42717E-02   -0.23131E-02  6184   0.415E-01    0.829E-01
DAV:  25    -0.435535423257E+03    0.32207E-02   -0.13620E-02  6472   0.296E-01    0.649E-01
DAV:  26    -0.435530953328E+03    0.44699E-02   -0.15262E-02  6664   0.344E-01    0.273E-01
DAV:  27    -0.435530272747E+03    0.68058E-03   -0.59786E-03  6528   0.197E-01    0.117E-01
DAV:  28    -0.435530133836E+03    0.13891E-03   -0.12929E-03  6480   0.935E-02    0.539E-02
DAV:  29    -0.435530122252E+03    0.11584E-04   -0.19203E-04  6304   0.392E-02    0.390E-02
DAV:  30    -0.435530160386E+03   -0.38134E-04   -0.13064E-04  6496   0.318E-02    0.605E-02
DAV:  31    -0.435530164801E+03   -0.44150E-05   -0.76691E-04  6632   0.845E-02    0.649E-02
DAV:  32    -0.435530111497E+03    0.53305E-04   -0.24309E-04  6672   0.505E-02    0.881E-03
DAV:  33    -0.435530109373E+03    0.21242E-05   -0.12556E-05  3632   0.945E-03
   1 F= -.43553011E+03 E0= -.43546355E+03  d E =-.133110E+00
Distance=1.500
 running on   16 total cores
 distrk:  each k-point on    8 cores,    2 groups
 distr:  one band on    4 cores,    2 groups
 using from now: INCAR     
 vasp.5.4.4.18Apr17-6-g9f103f2a35 (build Nov 27 2019 20:08:17) complex          
  
 POSCAR found type information on POSCAR  Ti
 POSCAR found :  1 types and      32 ions
 scaLAPACK will be used

 ----------------------------------------------------------------------------- 
|                                                                             |
|           W    W    AA    RRRRR   N    N  II  N    N   GGGG   !!!           |
|           W    W   A  A   R    R  NN   N  II  NN   N  G    G  !!!           |
|           W    W  A    A  R    R  N N  N  II  N N  N  G       !!!           |
|           W WW W  AAAAAA  RRRRR   N  N N  II  N  N N  G  GGG   !            |
|           WW  WW  A    A  R   R   N   NN  II  N   NN  G    G                |
|           W    W  A    A  R    R  N    N  II  N    N   GGGG   !!!           |
|                                                                             |
|      You have enabled k-point parallelism (KPAR>1).                         |
|      This developmental code was originally  written by Paul Kent at ORNL,  |
|      and carefully double checked in Vienna.                                |
|      GW as well as linear response parallelism added by Martijn Marsman     |
|      and Georg Kresse.                                                      |
|      Carefully verify results versus KPAR=1.                                |
|      Report problems to Paul Kent and Vienna.                               |
|                                                                             |
 ----------------------------------------------------------------------------- 

 LDA part: xc-table for Pade appr. of Perdew
 POSCAR found type information on POSCAR  Ti
 POSCAR found :  1 types and      32 ions
 POSCAR, INCAR and KPOINTS ok, starting setup
 FFT: planning ...
 WAVECAR not read
 entering main loop
       N       E                     dE             d eps       ncg     rms          rms(c)
DAV:   1     0.586064790502E+03    0.58606E+03   -0.36194E+04  1968   0.110E+03
DAV:   2    -0.166486293693E+03   -0.75255E+03   -0.72437E+03  1968   0.243E+02
DAV:   3    -0.277463111600E+03   -0.11098E+03   -0.10475E+03  3072   0.843E+01
DAV:   4    -0.286540556451E+03   -0.90774E+01   -0.83975E+01  3080   0.260E+01
DAV:   5    -0.287112029420E+03   -0.57147E+00   -0.54412E+00  3160   0.531E+00    0.669E+01
DAV:   6    -0.426911895992E+03   -0.13980E+03   -0.23650E+03  3696   0.968E+01    0.844E+01
DAV:   7    -0.248236781801E+03    0.17868E+03   -0.25439E+03  3448   0.154E+02    0.296E+01
DAV:   8    -0.253703175969E+03   -0.54664E+01   -0.50067E+02  3048   0.678E+01    0.314E+01
DAV:   9    -0.236150465312E+03    0.17553E+02   -0.10354E+02  3044   0.307E+01    0.197E+01
DAV:  10    -0.235693506676E+03    0.45696E+00   -0.10641E+01  3264   0.744E+00    0.178E+01
DAV:  11    -0.237339967850E+03   -0.16465E+01   -0.40761E+00  3248   0.497E+00    0.200E+01
DAV:  12    -0.233599946683E+03    0.37400E+01   -0.64549E+00  2844   0.955E+00    0.131E+01
DAV:  13    -0.230560807577E+03    0.30391E+01   -0.84855E+00  2898   0.107E+01    0.623E+00
DAV:  14    -0.230262331172E+03    0.29848E+00   -0.22422E+00  3248   0.371E+00    0.452E+00
DAV:  15    -0.230325407449E+03   -0.63076E-01   -0.10429E+00  2918   0.348E+00    0.501E+00
DAV:  16    -0.230023645603E+03    0.30176E+00   -0.27924E+00  3062   0.422E+00    0.187E+00
DAV:  17    -0.230019190557E+03    0.44550E-02   -0.16566E-01  2952   0.128E+00    0.115E+00
DAV:  18    -0.230002223101E+03    0.16967E-01   -0.99732E-02  3088   0.879E-01    0.380E-01
DAV:  19    -0.230004264175E+03   -0.20411E-02   -0.24633E-02  3296   0.376E-01    0.262E-01
DAV:  20    -0.230006030393E+03   -0.17662E-02   -0.14434E-02  2912   0.430E-01    0.187E-01
DAV:  21    -0.230008132840E+03   -0.21024E-02   -0.52916E-03  2888   0.220E-01    0.150E-01
DAV:  22    -0.230009432422E+03   -0.12996E-02   -0.22294E-03  2872   0.133E-01    0.490E-02
DAV:  23    -0.230010206557E+03   -0.77413E-03   -0.47470E-04  2616   0.633E-02    0.573E-02
DAV:  24    -0.230010253729E+03   -0.47173E-04   -0.20101E-04  2728   0.488E-02    0.239E-02
DAV:  25    -0.230010253066E+03    0.66299E-06   -0.70744E-05  2800   0.257E-02    0.930E-03
DAV:  26    -0.230010253097E+03   -0.30676E-07   -0.97232E-06  1760   0.915E-03
   1 F= -.23001025E+03 E0= -.22995243E+03  d E =-.115650E+00
 running on   16 total cores
 distrk:  each k-point on    8 cores,    2 groups
 distr:  one band on    4 cores,    2 groups
 using from now: INCAR     
 vasp.5.4.4.18Apr17-6-g9f103f2a35 (build Nov 27 2019 20:08:17) complex          
  
 POSCAR found type information on POSCAR  Ti
 POSCAR found :  1 types and      36 ions
 scaLAPACK will be used

 ----------------------------------------------------------------------------- 
|                                                                             |
|           W    W    AA    RRRRR   N    N  II  N    N   GGGG   !!!           |
|           W    W   A  A   R    R  NN   N  II  NN   N  G    G  !!!           |
|           W    W  A    A  R    R  N N  N  II  N N  N  G       !!!           |
|           W WW W  AAAAAA  RRRRR   N  N N  II  N  N N  G  GGG   !            |
|           WW  WW  A    A  R   R   N   NN  II  N   NN  G    G                |
|           W    W  A    A  R    R  N    N  II  N    N   GGGG   !!!           |
|                                                                             |
|      You have enabled k-point parallelism (KPAR>1).                         |
|      This developmental code was originally  written by Paul Kent at ORNL,  |
|      and carefully double checked in Vienna.                                |
|      GW as well as linear response parallelism added by Martijn Marsman     |
|      and Georg Kresse.                                                      |
|      Carefully verify results versus KPAR=1.                                |
|      Report problems to Paul Kent and Vienna.                               |
|                                                                             |
 ----------------------------------------------------------------------------- 

 LDA part: xc-table for Pade appr. of Perdew
 POSCAR found type information on POSCAR  Ti
 POSCAR found :  1 types and      36 ions
 POSCAR, INCAR and KPOINTS ok, starting setup
 FFT: planning ...
 WAVECAR not read
 WARNING: random wavefunctions but no delay for mixing, default for NELMDL
 entering main loop
       N       E                     dE             d eps       ncg     rms          rms(c)
DAV:   1     0.729041077011E+03    0.72904E+03   -0.41877E+04  2208   0.113E+03
DAV:   2    -0.191682526722E+03   -0.92072E+03   -0.88438E+03  2208   0.253E+02
DAV:   3    -0.324952191582E+03   -0.13327E+03   -0.12255E+03  3200   0.919E+01
DAV:   4    -0.334249741257E+03   -0.92975E+01   -0.85641E+01  3192   0.290E+01
DAV:   5    -0.334747761628E+03   -0.49802E+00   -0.47490E+00  3568   0.539E+00    0.824E+01
DAV:   6    -0.539100167165E+03   -0.20435E+03   -0.29651E+03  4164   0.960E+01    0.111E+02
DAV:   7    -0.290408219836E+03    0.24869E+03   -0.44309E+03  4096   0.165E+02    0.367E+01
DAV:   8    -0.280620827694E+03    0.97874E+01   -0.49188E+02  3232   0.758E+01    0.368E+01
DAV:   9    -0.275591835231E+03    0.50290E+01   -0.34727E+01  3712   0.136E+01    0.298E+01
DAV:  10    -0.278269609412E+03   -0.26778E+01   -0.39521E+00  3560   0.463E+00    0.327E+01
DAV:  11    -0.264648731612E+03    0.13621E+02   -0.29841E+01  3168   0.188E+01    0.115E+01
DAV:  12    -0.263866737674E+03    0.78199E+00   -0.20462E+00  3560   0.438E+00    0.919E+00
DAV:  13    -0.262591670096E+03    0.12751E+01   -0.35828E+00  2924   0.680E+00    0.353E+00
DAV:  14    -0.262451173246E+03    0.14050E+00   -0.94378E-01  3264   0.326E+00    0.180E+00
DAV:  15    -0.262448299640E+03    0.28736E-02   -0.72409E-02  3540   0.789E-01    0.117E+00
DAV:  16    -0.262455769895E+03   -0.74703E-02   -0.52159E-02  3400   0.737E-01    0.719E-01
DAV:  17    -0.262452554966E+03    0.32149E-02   -0.57926E-02  3564   0.712E-01    0.631E-01
DAV:  18    -0.262470483546E+03   -0.17929E-01   -0.26517E-01  3200   0.169E+00    0.113E+00
DAV:  19    -0.262460170748E+03    0.10313E-01   -0.30874E-02  3072   0.550E-01    0.557E-01
DAV:  20    -0.262458318654E+03    0.18521E-02   -0.19208E-02  2760   0.496E-01    0.105E-01
DAV:  21    -0.262459830324E+03   -0.15117E-02   -0.19825E-03  3136   0.119E-01    0.332E-02
DAV:  22    -0.262460200622E+03   -0.37030E-03   -0.41812E-04  3136   0.615E-02    0.437E-02
DAV:  23    -0.262460238808E+03   -0.38186E-04   -0.28697E-04  2888   0.559E-02    0.373E-03
DAV:  24    -0.262460240674E+03   -0.18662E-05   -0.13516E-05  2064   0.101E-02
   1 F= -.26246024E+03 E0= -.26240778E+03  d E =-.104912E+00
 running on   16 total cores
 distrk:  each k-point on    8 cores,    2 groups
 distr:  one band on    4 cores,    2 groups
 using from now: INCAR     
 vasp.5.4.4.18Apr17-6-g9f103f2a35 (build Nov 27 2019 20:08:17) complex          
  
 POSCAR found type information on POSCAR  Ti
 POSCAR found :  1 types and      68 ions
 scaLAPACK will be used

 ----------------------------------------------------------------------------- 
|                                                                             |
|           W    W    AA    RRRRR   N    N  II  N    N   GGGG   !!!           |
|           W    W   A  A   R    R  NN   N  II  NN   N  G    G  !!!           |
|           W    W  A    A  R    R  N N  N  II  N N  N  G       !!!           |
|           W WW W  AAAAAA  RRRRR   N  N N  II  N  N N  G  GGG   !            |
|           WW  WW  A    A  R   R   N   NN  II  N   NN  G    G                |
|           W    W  A    A  R    R  N    N  II  N    N   GGGG   !!!           |
|                                                                             |
|      You have enabled k-point parallelism (KPAR>1).                         |
|      This developmental code was originally  written by Paul Kent at ORNL,  |
|      and carefully double checked in Vienna.                                |
|      GW as well as linear response parallelism added by Martijn Marsman     |
|      and Georg Kresse.                                                      |
|      Carefully verify results versus KPAR=1.                                |
|      Report problems to Paul Kent and Vienna.                               |
|                                                                             |
 ----------------------------------------------------------------------------- 

 LDA part: xc-table for Pade appr. of Perdew
 POSCAR found type information on POSCAR  Ti
 POSCAR found :  1 types and      68 ions

 ----------------------------------------------------------------------------- 
|                                                                             |
|           W    W    AA    RRRRR   N    N  II  N    N   GGGG   !!!           |
|           W    W   A  A   R    R  NN   N  II  NN   N  G    G  !!!           |
|           W    W  A    A  R    R  N N  N  II  N N  N  G       !!!           |
|           W WW W  AAAAAA  RRRRR   N  N N  II  N  N N  G  GGG   !            |
|           WW  WW  A    A  R   R   N   NN  II  N   NN  G    G                |
|           W    W  A    A  R    R  N    N  II  N    N   GGGG   !!!           |
|                                                                             |
|      The distance between some ions is very small                           |
|      please check the nearest neigbor list in the OUTCAR file               |
|          I HOPE YOU KNOW, WHAT YOU ARE  DOING                               |
|                                                                             |
 ----------------------------------------------------------------------------- 

 POSCAR, INCAR and KPOINTS ok, starting setup
 FFT: planning ...
 WAVECAR not read
 WARNING: random wavefunctions but no delay for mixing, default for NELMDL
 entering main loop
       N       E                     dE             d eps       ncg     rms          rms(c)
DAV:   1     0.122431415154E+04    0.12243E+04   -0.78503E+04  4128   0.125E+03
DAV:   2    -0.341192237844E+03   -0.15655E+04   -0.15183E+04  4128   0.280E+02
DAV:   3    -0.566777380692E+03   -0.22559E+03   -0.20908E+03  5968   0.992E+01
DAV:   4    -0.585331120099E+03   -0.18554E+02   -0.17288E+02  6096   0.289E+01
DAV:   5    -0.586093459642E+03   -0.76234E+00   -0.73824E+00  5928   0.480E+00    0.108E+02
DAV:   6    -0.132676122203E+04   -0.74067E+03   -0.76086E+03  8200   0.160E+02    0.137E+02
DAV:   7    -0.613644322801E+03    0.71312E+03   -0.92359E+03  7532   0.164E+02    0.644E+01
DAV:   8    -0.562245091838E+03    0.51399E+02   -0.21801E+03  7632   0.118E+02    0.670E+01
DAV:   9    -0.560313419661E+03    0.19317E+01   -0.11429E+03  7416   0.925E+01    0.519E+01
DAV:  10    -0.520726981451E+03    0.39586E+02   -0.39714E+02  6936   0.526E+01    0.406E+01
DAV:  11    -0.516657374564E+03    0.40696E+01   -0.63362E+01  6656   0.181E+01    0.361E+01
DAV:  12    -0.513821808330E+03    0.28356E+01   -0.62358E+00  6168   0.613E+00    0.311E+01
DAV:  13    -0.510158486966E+03    0.36633E+01   -0.11568E+01  6424   0.908E+00    0.227E+01
DAV:  14    -0.506897338237E+03    0.32611E+01   -0.10555E+01  6232   0.856E+00    0.159E+01
DAV:  15    -0.505675526339E+03    0.12218E+01   -0.40125E+00  6352   0.546E+00    0.124E+01
DAV:  16    -0.504843381812E+03    0.83214E+00   -0.21282E+00  6096   0.427E+00    0.921E+00
DAV:  17    -0.504479663632E+03    0.36372E+00   -0.24726E+00  6280   0.425E+00    0.744E+00
DAV:  18    -0.504128969437E+03    0.35069E+00   -0.17780E+00  6368   0.353E+00    0.582E+00
DAV:  19    -0.503835431508E+03    0.29354E+00   -0.10064E+00  6160   0.285E+00    0.339E+00
DAV:  20    -0.503701966446E+03    0.13347E+00   -0.95673E-01  5272   0.290E+00    0.106E+00
DAV:  21    -0.503690935958E+03    0.11030E-01   -0.19402E-01  6168   0.129E+00    0.601E-01
DAV:  22    -0.503685187855E+03    0.57481E-02   -0.43377E-02  6160   0.586E-01    0.333E-01
DAV:  23    -0.503684228438E+03    0.95942E-03   -0.89291E-03  6296   0.246E-01    0.252E-01
DAV:  24    -0.503683901253E+03    0.32719E-03   -0.52571E-03  6256   0.186E-01    0.203E-01
DAV:  25    -0.503683423278E+03    0.47797E-03   -0.85447E-03  5960   0.259E-01    0.201E-01
DAV:  26    -0.503683119296E+03    0.30398E-03   -0.32929E-03  6104   0.148E-01    0.979E-02
DAV:  27    -0.503683084583E+03    0.34713E-04   -0.11153E-03  6160   0.872E-02    0.484E-02
DAV:  28    -0.503683072969E+03    0.11614E-04   -0.35608E-04  6200   0.461E-02    0.412E-02
DAV:  29    -0.503683055402E+03    0.17567E-04   -0.11887E-04  6192   0.294E-02    0.232E-02
DAV:  30    -0.503683046204E+03    0.91973E-05   -0.42074E-05  5256   0.184E-02    0.839E-03
DAV:  31    -0.503683044262E+03    0.19425E-05   -0.10295E-05  3056   0.947E-03
   1 F= -.50368304E+03 E0= -.50360596E+03  d E =-.154174E+00
Distance=2.000
 running on   16 total cores
 distrk:  each k-point on    8 cores,    2 groups
 distr:  one band on    4 cores,    2 groups
 using from now: INCAR     
 vasp.5.4.4.18Apr17-6-g9f103f2a35 (build Nov 27 2019 20:08:17) complex          
  
 POSCAR found type information on POSCAR  Ti
 POSCAR found :  1 types and      32 ions
 scaLAPACK will be used

 ----------------------------------------------------------------------------- 
|                                                                             |
|           W    W    AA    RRRRR   N    N  II  N    N   GGGG   !!!           |
|           W    W   A  A   R    R  NN   N  II  NN   N  G    G  !!!           |
|           W    W  A    A  R    R  N N  N  II  N N  N  G       !!!           |
|           W WW W  AAAAAA  RRRRR   N  N N  II  N  N N  G  GGG   !            |
|           WW  WW  A    A  R   R   N   NN  II  N   NN  G    G                |
|           W    W  A    A  R    R  N    N  II  N    N   GGGG   !!!           |
|                                                                             |
|      You have enabled k-point parallelism (KPAR>1).                         |
|      This developmental code was originally  written by Paul Kent at ORNL,  |
|      and carefully double checked in Vienna.                                |
|      GW as well as linear response parallelism added by Martijn Marsman     |
|      and Georg Kresse.                                                      |
|      Carefully verify results versus KPAR=1.                                |
|      Report problems to Paul Kent and Vienna.                               |
|                                                                             |
 ----------------------------------------------------------------------------- 

 LDA part: xc-table for Pade appr. of Perdew
 POSCAR found type information on POSCAR  Ti
 POSCAR found :  1 types and      32 ions
 POSCAR, INCAR and KPOINTS ok, starting setup
 FFT: planning ...
 WAVECAR not read
 entering main loop
       N       E                     dE             d eps       ncg     rms          rms(c)
DAV:   1     0.593225586025E+03    0.59323E+03   -0.36057E+04  1968   0.109E+03
DAV:   2    -0.165876227306E+03   -0.75910E+03   -0.73065E+03  1968   0.242E+02
DAV:   3    -0.277408166921E+03   -0.11153E+03   -0.10527E+03  3096   0.839E+01
DAV:   4    -0.286543061474E+03   -0.91349E+01   -0.84674E+01  3104   0.263E+01
DAV:   5    -0.287109322093E+03   -0.56626E+00   -0.53697E+00  3152   0.533E+00    0.669E+01
DAV:   6    -0.423221822139E+03   -0.13611E+03   -0.23170E+03  3680   0.960E+01    0.841E+01
DAV:   7    -0.250151587559E+03    0.17307E+03   -0.25858E+03  3416   0.156E+02    0.296E+01
DAV:   8    -0.252871319020E+03   -0.27197E+01   -0.47707E+02  3078   0.663E+01    0.310E+01
DAV:   9    -0.236426059006E+03    0.16445E+02   -0.95294E+01  3062   0.294E+01    0.199E+01
DAV:  10    -0.235913665637E+03    0.51239E+00   -0.10703E+01  3224   0.721E+00    0.180E+01
DAV:  11    -0.237379824197E+03   -0.14662E+01   -0.39311E+00  3256   0.484E+00    0.200E+01
DAV:  12    -0.234039924745E+03    0.33399E+01   -0.59562E+00  3024   0.892E+00    0.140E+01
DAV:  13    -0.230661035754E+03    0.33789E+01   -0.88978E+00  2864   0.109E+01    0.652E+00
DAV:  14    -0.230304354256E+03    0.35668E+00   -0.19739E+00  3248   0.352E+00    0.467E+00
DAV:  15    -0.230261104240E+03    0.43250E-01   -0.13397E+00  2776   0.429E+00    0.462E+00
DAV:  16    -0.230029002903E+03    0.23210E+00   -0.20611E+00  3094   0.375E+00    0.174E+00
DAV:  17    -0.230019711863E+03    0.92910E-02   -0.12386E-01  2984   0.107E+00    0.101E+00
DAV:  18    -0.230004321531E+03    0.15390E-01   -0.78811E-02  3184   0.748E-01    0.373E-01
DAV:  19    -0.230004257030E+03    0.64500E-04   -0.21695E-02  3264   0.394E-01    0.193E-01
DAV:  20    -0.230005406121E+03   -0.11491E-02   -0.84038E-03  2992   0.330E-01    0.180E-01
DAV:  21    -0.230005926302E+03   -0.52018E-03   -0.40137E-03  2560   0.226E-01    0.109E-01
DAV:  22    -0.230007885169E+03   -0.19589E-02   -0.39741E-03  3008   0.173E-01    0.126E-01
DAV:  23    -0.230008471214E+03   -0.58605E-03   -0.71667E-04  2824   0.876E-02    0.541E-02
DAV:  24    -0.230008820811E+03   -0.34960E-03   -0.33825E-04  3088   0.497E-02    0.219E-02
DAV:  25    -0.230008942498E+03   -0.12169E-03   -0.84561E-05  2520   0.295E-02    0.107E-02
DAV:  26    -0.230008954759E+03   -0.12260E-04   -0.15872E-05  1992   0.114E-02    0.122E-02
DAV:  27    -0.230008957091E+03   -0.23328E-05   -0.82250E-06  1640   0.103E-02
   1 F= -.23000896E+03 E0= -.22995114E+03  d E =-.115641E+00
 running on   16 total cores
 distrk:  each k-point on    8 cores,    2 groups
 distr:  one band on    4 cores,    2 groups
 using from now: INCAR     
 vasp.5.4.4.18Apr17-6-g9f103f2a35 (build Nov 27 2019 20:08:17) complex          
  
 POSCAR found type information on POSCAR  Ti
 POSCAR found :  1 types and      36 ions
 scaLAPACK will be used

 ----------------------------------------------------------------------------- 
|                                                                             |
|           W    W    AA    RRRRR   N    N  II  N    N   GGGG   !!!           |
|           W    W   A  A   R    R  NN   N  II  NN   N  G    G  !!!           |
|           W    W  A    A  R    R  N N  N  II  N N  N  G       !!!           |
|           W WW W  AAAAAA  RRRRR   N  N N  II  N  N N  G  GGG   !            |
|           WW  WW  A    A  R   R   N   NN  II  N   NN  G    G                |
|           W    W  A    A  R    R  N    N  II  N    N   GGGG   !!!           |
|                                                                             |
|      You have enabled k-point parallelism (KPAR>1).                         |
|      This developmental code was originally  written by Paul Kent at ORNL,  |
|      and carefully double checked in Vienna.                                |
|      GW as well as linear response parallelism added by Martijn Marsman     |
|      and Georg Kresse.                                                      |
|      Carefully verify results versus KPAR=1.                                |
|      Report problems to Paul Kent and Vienna.                               |
|                                                                             |
 ----------------------------------------------------------------------------- 

 LDA part: xc-table for Pade appr. of Perdew
 POSCAR found type information on POSCAR  Ti
 POSCAR found :  1 types and      36 ions
 POSCAR, INCAR and KPOINTS ok, starting setup
 FFT: planning ...
 WAVECAR not read
 WARNING: random wavefunctions but no delay for mixing, default for NELMDL
 entering main loop
       N       E                     dE             d eps       ncg     rms          rms(c)
DAV:   1     0.739528795655E+03    0.73953E+03   -0.41816E+04  2208   0.112E+03
DAV:   2    -0.191467413610E+03   -0.93100E+03   -0.89406E+03  2208   0.252E+02
DAV:   3    -0.324949916901E+03   -0.13348E+03   -0.12279E+03  3216   0.912E+01
DAV:   4    -0.334217278070E+03   -0.92674E+01   -0.85388E+01  3184   0.290E+01
DAV:   5    -0.334743603880E+03   -0.52633E+00   -0.49925E+00  3608   0.554E+00    0.825E+01
DAV:   6    -0.533557586510E+03   -0.19881E+03   -0.29065E+03  4172   0.953E+01    0.110E+02
DAV:   7    -0.293364150225E+03    0.24019E+03   -0.45076E+03  4060   0.166E+02    0.373E+01
DAV:   8    -0.281076963432E+03    0.12287E+02   -0.50126E+02  3216   0.768E+01    0.371E+01
DAV:   9    -0.276485465425E+03    0.45915E+01   -0.34247E+01  3696   0.134E+01    0.306E+01
DAV:  10    -0.279353004406E+03   -0.28675E+01   -0.33040E+00  3424   0.432E+00    0.336E+01
DAV:  11    -0.264751657616E+03    0.14601E+02   -0.36129E+01  3292   0.205E+01    0.116E+01
DAV:  12    -0.263520933951E+03    0.12307E+01   -0.37628E+00  3528   0.607E+00    0.777E+00
DAV:  13    -0.262843576840E+03    0.67736E+00   -0.10517E+00  2916   0.376E+00    0.500E+00
DAV:  14    -0.262490735409E+03    0.35284E+00   -0.11747E+00  2960   0.392E+00    0.252E+00
DAV:  15    -0.262456563711E+03    0.34172E-01   -0.28808E-01  3560   0.169E+00    0.153E+00
DAV:  16    -0.262468208592E+03   -0.11645E-01   -0.28288E-02  3356   0.513E-01    0.124E+00
DAV:  17    -0.262459657552E+03    0.85510E-02   -0.27281E-01  3436   0.135E+00    0.864E-01
DAV:  18    -0.262452423174E+03    0.72344E-02   -0.14842E-01  3220   0.127E+00    0.439E-01
DAV:  19    -0.262457156222E+03   -0.47330E-02   -0.61371E-03  3152   0.232E-01    0.563E-01
DAV:  20    -0.262456212125E+03    0.94410E-03   -0.10697E-02  2744   0.361E-01    0.163E-01
DAV:  21    -0.262457825094E+03   -0.16130E-02   -0.19305E-03  3248   0.124E-01    0.713E-02
DAV:  22    -0.262458441027E+03   -0.61593E-03   -0.36653E-04  3072   0.570E-02    0.380E-02
DAV:  23    -0.262458850584E+03   -0.40956E-03   -0.41410E-04  2424   0.713E-02    0.325E-02
DAV:  24    -0.262458863960E+03   -0.13376E-04   -0.34418E-05  2736   0.164E-02    0.211E-02
DAV:  25    -0.262458866945E+03   -0.29849E-05   -0.22855E-05  2416   0.192E-02
   1 F= -.26245887E+03 E0= -.26240641E+03  d E =-.104908E+00
 running on   16 total cores
 distrk:  each k-point on    8 cores,    2 groups
 distr:  one band on    4 cores,    2 groups
 using from now: INCAR     
 vasp.5.4.4.18Apr17-6-g9f103f2a35 (build Nov 27 2019 20:08:17) complex          
  
 POSCAR found type information on POSCAR  Ti
 POSCAR found :  1 types and      68 ions
 scaLAPACK will be used

 ----------------------------------------------------------------------------- 
|                                                                             |
|           W    W    AA    RRRRR   N    N  II  N    N   GGGG   !!!           |
|           W    W   A  A   R    R  NN   N  II  NN   N  G    G  !!!           |
|           W    W  A    A  R    R  N N  N  II  N N  N  G       !!!           |
|           W WW W  AAAAAA  RRRRR   N  N N  II  N  N N  G  GGG   !            |
|           WW  WW  A    A  R   R   N   NN  II  N   NN  G    G                |
|           W    W  A    A  R    R  N    N  II  N    N   GGGG   !!!           |
|                                                                             |
|      You have enabled k-point parallelism (KPAR>1).                         |
|      This developmental code was originally  written by Paul Kent at ORNL,  |
|      and carefully double checked in Vienna.                                |
|      GW as well as linear response parallelism added by Martijn Marsman     |
|      and Georg Kresse.                                                      |
|      Carefully verify results versus KPAR=1.                                |
|      Report problems to Paul Kent and Vienna.                               |
|                                                                             |
 ----------------------------------------------------------------------------- 

 LDA part: xc-table for Pade appr. of Perdew
 POSCAR found type information on POSCAR  Ti
 POSCAR found :  1 types and      68 ions
 POSCAR, INCAR and KPOINTS ok, starting setup
 FFT: planning ...
 WAVECAR not read
 WARNING: random wavefunctions but no delay for mixing, default for NELMDL
 entering main loop
       N       E                     dE             d eps       ncg     rms          rms(c)
DAV:   1     0.117299570503E+04    0.11730E+04   -0.78122E+04  4128   0.123E+03
DAV:   2    -0.354868551498E+03   -0.15279E+04   -0.14823E+04  4128   0.275E+02
DAV:   3    -0.580852639379E+03   -0.22598E+03   -0.20900E+03  6104   0.962E+01
DAV:   4    -0.599585520289E+03   -0.18733E+02   -0.17609E+02  6208   0.280E+01
DAV:   5    -0.600367758168E+03   -0.78224E+00   -0.75728E+00  6032   0.457E+00    0.106E+02
DAV:   6    -0.151222419559E+04   -0.91186E+03   -0.93473E+03  8108   0.174E+02    0.120E+02
DAV:   7    -0.650376978652E+03    0.86185E+03   -0.87215E+03  7576   0.150E+02    0.853E+01
DAV:   8    -0.528147699061E+03    0.12223E+03   -0.28794E+03  6544   0.159E+02    0.435E+01
DAV:   9    -0.551310406191E+03   -0.23163E+02   -0.82682E+02  7160   0.659E+01    0.427E+01
DAV:  10    -0.548740785326E+03    0.25696E+01   -0.20819E+02  6792   0.332E+01    0.436E+01
DAV:  11    -0.540519331669E+03    0.82215E+01   -0.25724E+01  6632   0.121E+01    0.408E+01
DAV:  12    -0.537157090569E+03    0.33622E+01   -0.25653E+00  6304   0.353E+00    0.385E+01
DAV:  13    -0.523821479287E+03    0.13336E+02   -0.16425E+01  6360   0.102E+01    0.261E+01
DAV:  14    -0.517372581812E+03    0.64489E+01   -0.18493E+01  6496   0.108E+01    0.168E+01
DAV:  15    -0.514935626571E+03    0.24370E+01   -0.42546E+00  6320   0.543E+00    0.120E+01
DAV:  16    -0.513754049634E+03    0.11816E+01   -0.12843E+00  6112   0.279E+00    0.925E+00
DAV:  17    -0.513299292486E+03    0.45476E+00   -0.28507E+00  6568   0.414E+00    0.850E+00
DAV:  18    -0.512856610896E+03    0.44268E+00   -0.13864E+00  6376   0.310E+00    0.741E+00
DAV:  19    -0.512305648969E+03    0.55096E+00   -0.92005E-01  6528   0.239E+00    0.574E+00
DAV:  20    -0.512267302826E+03    0.38346E-01   -0.10460E+00  6480   0.263E+00    0.565E+00
DAV:  21    -0.511843555654E+03    0.42375E+00   -0.10715E+00  6248   0.281E+00    0.300E+00
DAV:  22    -0.511765492973E+03    0.78063E-01   -0.50123E-01  6208   0.187E+00    0.195E+00
DAV:  23    -0.511748648832E+03    0.16844E-01   -0.15301E-01  6360   0.934E-01    0.168E+00
DAV:  24    -0.511698589704E+03    0.50059E-01   -0.15037E-01  6696   0.962E-01    0.821E-01
DAV:  25    -0.511689985844E+03    0.86039E-02   -0.59941E-02  6288   0.633E-01    0.407E-01
DAV:  26    -0.511689833968E+03    0.15188E-03   -0.12503E-02  6440   0.282E-01    0.369E-01
DAV:  27    -0.511689477982E+03    0.35599E-03   -0.39610E-03  6408   0.161E-01    0.304E-01
DAV:  28    -0.511689757628E+03   -0.27965E-03   -0.48161E-03  6208   0.186E-01    0.290E-01
DAV:  29    -0.511688742124E+03    0.10155E-02   -0.36908E-03  6536   0.163E-01    0.174E-01
DAV:  30    -0.511688408070E+03    0.33405E-03   -0.20969E-03  6544   0.105E-01    0.962E-02
DAV:  31    -0.511688362775E+03    0.45295E-04   -0.49040E-04  6360   0.629E-02    0.643E-02
DAV:  32    -0.511688386984E+03   -0.24209E-04   -0.17647E-04  6600   0.311E-02    0.586E-02
DAV:  33    -0.511688347900E+03    0.39084E-04   -0.73047E-05  5696   0.255E-02    0.335E-02
DAV:  34    -0.511688330572E+03    0.17328E-04   -0.39804E-05  5280   0.159E-02    0.155E-02
DAV:  35    -0.511688323391E+03    0.71809E-05   -0.20847E-05  3920   0.112E-02    0.584E-03
DAV:  36    -0.511688322308E+03    0.10824E-05   -0.69028E-06  2736   0.839E-03
   1 F= -.51168832E+03 E0= -.51160907E+03  d E =-.158514E+00
Distance=2.500
 running on   16 total cores
 distrk:  each k-point on    8 cores,    2 groups
 distr:  one band on    4 cores,    2 groups
 using from now: INCAR     
 vasp.5.4.4.18Apr17-6-g9f103f2a35 (build Nov 27 2019 20:08:17) complex          
  
 POSCAR found type information on POSCAR  Ti
 POSCAR found :  1 types and      32 ions
 scaLAPACK will be used

 ----------------------------------------------------------------------------- 
|                                                                             |
|           W    W    AA    RRRRR   N    N  II  N    N   GGGG   !!!           |
|           W    W   A  A   R    R  NN   N  II  NN   N  G    G  !!!           |
|           W    W  A    A  R    R  N N  N  II  N N  N  G       !!!           |
|           W WW W  AAAAAA  RRRRR   N  N N  II  N  N N  G  GGG   !            |
|           WW  WW  A    A  R   R   N   NN  II  N   NN  G    G                |
|           W    W  A    A  R    R  N    N  II  N    N   GGGG   !!!           |
|                                                                             |
|      You have enabled k-point parallelism (KPAR>1).                         |
|      This developmental code was originally  written by Paul Kent at ORNL,  |
|      and carefully double checked in Vienna.                                |
|      GW as well as linear response parallelism added by Martijn Marsman     |
|      and Georg Kresse.                                                      |
|      Carefully verify results versus KPAR=1.                                |
|      Report problems to Paul Kent and Vienna.                               |
|                                                                             |
 ----------------------------------------------------------------------------- 

 LDA part: xc-table for Pade appr. of Perdew
 POSCAR found type information on POSCAR  Ti
 POSCAR found :  1 types and      32 ions
 POSCAR, INCAR and KPOINTS ok, starting setup
 FFT: planning ...
 WAVECAR not read
 entering main loop
       N       E                     dE             d eps       ncg     rms          rms(c)
DAV:   1     0.599755170373E+03    0.59976E+03   -0.35899E+04  1968   0.108E+03
DAV:   2    -0.164444720785E+03   -0.76420E+03   -0.73535E+03  1968   0.241E+02
DAV:   3    -0.276882641045E+03   -0.11244E+03   -0.10611E+03  3088   0.834E+01
DAV:   4    -0.286495359773E+03   -0.96127E+01   -0.89186E+01  3088   0.266E+01
DAV:   5    -0.287108202982E+03   -0.61284E+00   -0.58254E+00  3144   0.564E+00    0.669E+01
DAV:   6    -0.419243256584E+03   -0.13214E+03   -0.22675E+03  3656   0.953E+01    0.836E+01
DAV:   7    -0.252030705515E+03    0.16721E+03   -0.26151E+03  3416   0.157E+02    0.297E+01
DAV:   8    -0.251430274726E+03    0.60043E+00   -0.45262E+02  3034   0.649E+01    0.306E+01
DAV:   9    -0.236676779325E+03    0.14753E+02   -0.90370E+01  3046   0.283E+01    0.201E+01
DAV:  10    -0.236232955820E+03    0.44382E+00   -0.99591E+00  3256   0.694E+00    0.185E+01
DAV:  11    -0.237339253739E+03   -0.11063E+01   -0.37813E+00  3264   0.466E+00    0.199E+01
DAV:  12    -0.234649504150E+03    0.26897E+01   -0.49125E+00  3070   0.780E+00    0.151E+01
DAV:  13    -0.230753547404E+03    0.38960E+01   -0.98978E+00  2788   0.116E+01    0.695E+00
DAV:  14    -0.230363355634E+03    0.39019E+00   -0.21260E+00  3304   0.366E+00    0.513E+00
DAV:  15    -0.230244598700E+03    0.11876E+00   -0.14650E+00  2696   0.456E+00    0.472E+00
DAV:  16    -0.230028960002E+03    0.21564E+00   -0.17249E+00  3136   0.341E+00    0.154E+00
DAV:  17    -0.230022338937E+03    0.66211E-02   -0.11780E-01  3008   0.101E+00    0.913E-01
DAV:  18    -0.230007931237E+03    0.14408E-01   -0.99718E-02  3176   0.777E-01    0.397E-01
DAV:  19    -0.230006534167E+03    0.13971E-02   -0.14799E-02  3040   0.367E-01    0.174E-01
DAV:  20    -0.230006712168E+03   -0.17800E-03   -0.68656E-03  2944   0.299E-01    0.150E-01
DAV:  21    -0.230006160152E+03    0.55202E-03   -0.30885E-03  2464   0.198E-01    0.600E-02
DAV:  22    -0.230007352308E+03   -0.11922E-02   -0.10255E-03  2944   0.873E-02    0.783E-02
DAV:  23    -0.230007999597E+03   -0.64729E-03   -0.47852E-04  2640   0.844E-02    0.443E-02
DAV:  24    -0.230008667156E+03   -0.66756E-03   -0.28502E-04  2904   0.441E-02    0.342E-02
DAV:  25    -0.230008902404E+03   -0.23525E-03   -0.13216E-04  2512   0.406E-02    0.127E-02
DAV:  26    -0.230008980841E+03   -0.78437E-04   -0.38467E-05  2560   0.171E-02    0.173E-02
DAV:  27    -0.230008988034E+03   -0.71938E-05   -0.22134E-05  2136   0.152E-02    0.487E-03
DAV:  28    -0.230008989068E+03   -0.10340E-05   -0.19952E-06  1376   0.535E-03
   1 F= -.23000899E+03 E0= -.22995117E+03  d E =-.115642E+00
 running on   16 total cores
 distrk:  each k-point on    8 cores,    2 groups
 distr:  one band on    4 cores,    2 groups
 using from now: INCAR     
 vasp.5.4.4.18Apr17-6-g9f103f2a35 (build Nov 27 2019 20:08:17) complex          
  
 POSCAR found type information on POSCAR  Ti
 POSCAR found :  1 types and      36 ions
 scaLAPACK will be used

 ----------------------------------------------------------------------------- 
|                                                                             |
|           W    W    AA    RRRRR   N    N  II  N    N   GGGG   !!!           |
|           W    W   A  A   R    R  NN   N  II  NN   N  G    G  !!!           |
|           W    W  A    A  R    R  N N  N  II  N N  N  G       !!!           |
|           W WW W  AAAAAA  RRRRR   N  N N  II  N  N N  G  GGG   !            |
|           WW  WW  A    A  R   R   N   NN  II  N   NN  G    G                |
|           W    W  A    A  R    R  N    N  II  N    N   GGGG   !!!           |
|                                                                             |
|      You have enabled k-point parallelism (KPAR>1).                         |
|      This developmental code was originally  written by Paul Kent at ORNL,  |
|      and carefully double checked in Vienna.                                |
|      GW as well as linear response parallelism added by Martijn Marsman     |
|      and Georg Kresse.                                                      |
|      Carefully verify results versus KPAR=1.                                |
|      Report problems to Paul Kent and Vienna.                               |
|                                                                             |
 ----------------------------------------------------------------------------- 

 LDA part: xc-table for Pade appr. of Perdew
 POSCAR found type information on POSCAR  Ti
 POSCAR found :  1 types and      36 ions
 POSCAR, INCAR and KPOINTS ok, starting setup
 FFT: planning ...
 WAVECAR not read
 WARNING: random wavefunctions but no delay for mixing, default for NELMDL
 entering main loop
       N       E                     dE             d eps       ncg     rms          rms(c)
DAV:   1     0.749451306347E+03    0.74945E+03   -0.41663E+04  2208   0.111E+03
DAV:   2    -0.189927991121E+03   -0.93938E+03   -0.90213E+03  2208   0.251E+02
DAV:   3    -0.324796088473E+03   -0.13487E+03   -0.12445E+03  3232   0.909E+01
DAV:   4    -0.334185095572E+03   -0.93890E+01   -0.86422E+01  3160   0.291E+01
DAV:   5    -0.334740482082E+03   -0.55539E+00   -0.52744E+00  3568   0.572E+00    0.824E+01
DAV:   6    -0.526486779882E+03   -0.19175E+03   -0.28110E+03  4164   0.944E+01    0.109E+02
DAV:   7    -0.297208928809E+03    0.22928E+03   -0.45988E+03  4096   0.167E+02    0.379E+01
DAV:   8    -0.281652882862E+03    0.15556E+02   -0.50355E+02  3144   0.780E+01    0.371E+01
DAV:   9    -0.277529408312E+03    0.41235E+01   -0.33552E+01  3656   0.138E+01    0.315E+01
DAV:  10    -0.276842685641E+03    0.68672E+00   -0.21006E+00  3560   0.249E+00    0.307E+01
DAV:  11    -0.266132337875E+03    0.10710E+02   -0.27897E+01  3236   0.172E+01    0.144E+01
DAV:  12    -0.262706636613E+03    0.34257E+01   -0.13524E+01  3500   0.122E+01    0.651E+00
DAV:  13    -0.263075540352E+03   -0.36890E+00   -0.10219E+00  3344   0.348E+00    0.628E+00
DAV:  14    -0.262709777313E+03    0.36576E+00   -0.65227E-01  3392   0.248E+00    0.384E+00
DAV:  15    -0.262511864505E+03    0.19791E+00   -0.63960E-01  2556   0.321E+00    0.242E+00
DAV:  16    -0.262478712942E+03    0.33152E-01   -0.10609E-01  3504   0.823E-01    0.164E+00
DAV:  17    -0.262467633000E+03    0.11080E-01   -0.15113E-02  3368   0.302E-01    0.116E+00
DAV:  18    -0.262454065381E+03    0.13568E-01   -0.15440E-01  3288   0.113E+00    0.431E-01
DAV:  19    -0.262453650268E+03    0.41511E-03   -0.14605E-02  3272   0.334E-01    0.309E-01
DAV:  20    -0.262454463470E+03   -0.81320E-03   -0.54068E-03  3016   0.254E-01    0.155E-01
DAV:  21    -0.262456435055E+03   -0.19716E-02   -0.18853E-03  3216   0.130E-01    0.108E-01
DAV:  22    -0.262457920404E+03   -0.14853E-02   -0.12222E-03  2880   0.124E-01    0.797E-02
DAV:  23    -0.262458414734E+03   -0.49433E-03   -0.57188E-04  3144   0.800E-02    0.375E-02
DAV:  24    -0.262458809516E+03   -0.39478E-03   -0.17370E-04  2904   0.384E-02    0.264E-02
DAV:  25    -0.262458823717E+03   -0.14201E-04   -0.26211E-05  2632   0.196E-02    0.121E-02
DAV:  26    -0.262458832511E+03   -0.87946E-05   -0.15067E-05  2136   0.103E-02    0.433E-03
DAV:  27    -0.262458834956E+03   -0.24449E-05   -0.25536E-06  1536   0.663E-03
   1 F= -.26245883E+03 E0= -.26240638E+03  d E =-.104911E+00
 running on   16 total cores
 distrk:  each k-point on    8 cores,    2 groups
 distr:  one band on    4 cores,    2 groups
 using from now: INCAR     
 vasp.5.4.4.18Apr17-6-g9f103f2a35 (build Nov 27 2019 20:08:17) complex          
  
 POSCAR found type information on POSCAR  Ti
 POSCAR found :  1 types and      68 ions
 scaLAPACK will be used

 ----------------------------------------------------------------------------- 
|                                                                             |
|           W    W    AA    RRRRR   N    N  II  N    N   GGGG   !!!           |
|           W    W   A  A   R    R  NN   N  II  NN   N  G    G  !!!           |
|           W    W  A    A  R    R  N N  N  II  N N  N  G       !!!           |
|           W WW W  AAAAAA  RRRRR   N  N N  II  N  N N  G  GGG   !            |
|           WW  WW  A    A  R   R   N   NN  II  N   NN  G    G                |
|           W    W  A    A  R    R  N    N  II  N    N   GGGG   !!!           |
|                                                                             |
|      You have enabled k-point parallelism (KPAR>1).                         |
|      This developmental code was originally  written by Paul Kent at ORNL,  |
|      and carefully double checked in Vienna.                                |
|      GW as well as linear response parallelism added by Martijn Marsman     |
|      and Georg Kresse.                                                      |
|      Carefully verify results versus KPAR=1.                                |
|      Report problems to Paul Kent and Vienna.                               |
|                                                                             |
 ----------------------------------------------------------------------------- 

 LDA part: xc-table for Pade appr. of Perdew
 POSCAR found type information on POSCAR  Ti
 POSCAR found :  1 types and      68 ions
 POSCAR, INCAR and KPOINTS ok, starting setup
 FFT: planning ...
 WAVECAR not read
 WARNING: random wavefunctions but no delay for mixing, default for NELMDL
 entering main loop
       N       E                     dE             d eps       ncg     rms          rms(c)
DAV:   1     0.114854174539E+04    0.11485E+04   -0.77787E+04  4128   0.122E+03
DAV:   2    -0.366035039197E+03   -0.15146E+04   -0.14686E+04  4128   0.273E+02
DAV:   3    -0.596679308043E+03   -0.23064E+03   -0.21448E+03  6152   0.961E+01
DAV:   4    -0.614944137463E+03   -0.18265E+02   -0.17289E+02  6088   0.283E+01
DAV:   5    -0.615664101204E+03   -0.71996E+00   -0.69696E+00  5984   0.446E+00    0.107E+02
DAV:   6    -0.192824096758E+04   -0.13126E+04   -0.14160E+04  8060   0.195E+02    0.131E+02
DAV:   7    -0.682502492581E+03    0.12457E+04   -0.92781E+03  7688   0.143E+02    0.104E+02
DAV:   8    -0.522922574075E+03    0.15958E+03   -0.38339E+03  6576   0.177E+02    0.407E+01
DAV:   9    -0.580107172929E+03   -0.57185E+02   -0.11164E+03  7664   0.736E+01    0.530E+01
DAV:  10    -0.547148198998E+03    0.32959E+02   -0.36901E+02  7072   0.476E+01    0.417E+01
DAV:  11    -0.531212497769E+03    0.15936E+02   -0.72391E+01  6952   0.210E+01    0.341E+01
DAV:  12    -0.524614475539E+03    0.65980E+01   -0.20695E+01  6760   0.931E+00    0.289E+01
DAV:  13    -0.516978243308E+03    0.76362E+01   -0.40518E+01  6656   0.151E+01    0.196E+01
DAV:  14    -0.516663793653E+03    0.31445E+00   -0.25653E+01  7000   0.133E+01    0.184E+01
DAV:  15    -0.515364185201E+03    0.12996E+01   -0.30785E+00  6296   0.456E+00    0.160E+01
DAV:  16    -0.514215174877E+03    0.11490E+01   -0.63440E-01  6376   0.189E+00    0.144E+01
DAV:  17    -0.512608455224E+03    0.16067E+01   -0.32133E+00  6520   0.427E+00    0.118E+01
DAV:  18    -0.511277261255E+03    0.13312E+01   -0.32369E+00  6368   0.432E+00    0.891E+00
DAV:  19    -0.510283398647E+03    0.99386E+00   -0.18128E+00  6616   0.308E+00    0.601E+00
DAV:  20    -0.509750103375E+03    0.53330E+00   -0.10037E+00  6640   0.236E+00    0.372E+00
DAV:  21    -0.509579166984E+03    0.17094E+00   -0.12828E+00  6544   0.277E+00    0.253E+00
DAV:  22    -0.509583266665E+03   -0.40997E-02   -0.50578E-01  6376   0.182E+00    0.239E+00
DAV:  23    -0.509509205725E+03    0.74061E-01   -0.23312E-01  6392   0.117E+00    0.148E+00
DAV:  24    -0.509470104575E+03    0.39101E-01   -0.18316E-01  6576   0.899E-01    0.610E-01
DAV:  25    -0.509468197642E+03    0.19069E-02   -0.46466E-02  6312   0.533E-01    0.521E-01
DAV:  26    -0.509465516129E+03    0.26815E-02   -0.17768E-02  6456   0.292E-01    0.356E-01
DAV:  27    -0.509465392693E+03    0.12344E-03   -0.71213E-03  6488   0.180E-01    0.299E-01
DAV:  28    -0.509465415025E+03   -0.22332E-04   -0.52944E-03  6320   0.169E-01    0.216E-01
DAV:  29    -0.509465044437E+03    0.37059E-03   -0.60098E-03  6584   0.192E-01    0.182E-01
DAV:  30    -0.509464729790E+03    0.31465E-03   -0.20885E-03  6416   0.118E-01    0.934E-02
DAV:  31    -0.509464711217E+03    0.18572E-04   -0.33933E-04  6224   0.477E-02    0.924E-02
DAV:  32    -0.509464670509E+03    0.40708E-04   -0.11343E-04  6216   0.281E-02    0.650E-02
DAV:  33    -0.509464647597E+03    0.22912E-04   -0.14626E-04  6344   0.288E-02    0.443E-02
DAV:  34    -0.509464644053E+03    0.35445E-05   -0.11265E-04  6288   0.223E-02    0.347E-02
DAV:  35    -0.509464634397E+03    0.96559E-05   -0.31225E-05  4344   0.154E-02    0.222E-02
DAV:  36    -0.509464630021E+03    0.43756E-05   -0.34691E-05  5032   0.149E-02
   1 F= -.50946463E+03 E0= -.50938463E+03  d E =-.159991E+00
Distance=3.000
 running on   16 total cores
 distrk:  each k-point on    8 cores,    2 groups
 distr:  one band on    4 cores,    2 groups
 using from now: INCAR     
 vasp.5.4.4.18Apr17-6-g9f103f2a35 (build Nov 27 2019 20:08:17) complex          
  
 POSCAR found type information on POSCAR  Ti
 POSCAR found :  1 types and      32 ions
 scaLAPACK will be used

 ----------------------------------------------------------------------------- 
|                                                                             |
|           W    W    AA    RRRRR   N    N  II  N    N   GGGG   !!!           |
|           W    W   A  A   R    R  NN   N  II  NN   N  G    G  !!!           |
|           W    W  A    A  R    R  N N  N  II  N N  N  G       !!!           |
|           W WW W  AAAAAA  RRRRR   N  N N  II  N  N N  G  GGG   !            |
|           WW  WW  A    A  R   R   N   NN  II  N   NN  G    G                |
|           W    W  A    A  R    R  N    N  II  N    N   GGGG   !!!           |
|                                                                             |
|      You have enabled k-point parallelism (KPAR>1).                         |
|      This developmental code was originally  written by Paul Kent at ORNL,  |
|      and carefully double checked in Vienna.                                |
|      GW as well as linear response parallelism added by Martijn Marsman     |
|      and Georg Kresse.                                                      |
|      Carefully verify results versus KPAR=1.                                |
|      Report problems to Paul Kent and Vienna.                               |
|                                                                             |
 ----------------------------------------------------------------------------- 

 LDA part: xc-table for Pade appr. of Perdew
 POSCAR found type information on POSCAR  Ti
 POSCAR found :  1 types and      32 ions
 POSCAR, INCAR and KPOINTS ok, starting setup
 FFT: planning ...
 WAVECAR not read
 entering main loop
       N       E                     dE             d eps       ncg     rms          rms(c)
DAV:   1     0.599294991507E+03    0.59929E+03   -0.35750E+04  1968   0.107E+03
DAV:   2    -0.165243878809E+03   -0.76454E+03   -0.73569E+03  1968   0.239E+02
DAV:   3    -0.276923029554E+03   -0.11168E+03   -0.10539E+03  3080   0.823E+01
DAV:   4    -0.286501789214E+03   -0.95788E+01   -0.88576E+01  3096   0.263E+01
DAV:   5    -0.287109319729E+03   -0.60753E+00   -0.57730E+00  3152   0.562E+00    0.669E+01
DAV:   6    -0.414582993967E+03   -0.12747E+03   -0.22126E+03  3688   0.945E+01    0.830E+01
DAV:   7    -0.253518482647E+03    0.16106E+03   -0.26295E+03  3440   0.158E+02    0.297E+01
DAV:   8    -0.249502777831E+03    0.40157E+01   -0.41994E+02  3012   0.629E+01    0.300E+01
DAV:   9    -0.236927058839E+03    0.12576E+02   -0.82896E+01  3116   0.267E+01    0.203E+01
DAV:  10    -0.236534080697E+03    0.39298E+00   -0.87001E+00  3272   0.673E+00    0.188E+01
DAV:  11    -0.237265530068E+03   -0.73145E+00   -0.37186E+00  3232   0.444E+00    0.198E+01
DAV:  12    -0.233550508672E+03    0.37150E+01   -0.83866E+00  3080   0.104E+01    0.130E+01
DAV:  13    -0.230923145840E+03    0.26274E+01   -0.57450E+00  2924   0.867E+00    0.771E+00
DAV:  14    -0.230444462439E+03    0.47868E+00   -0.21316E+00  3240   0.378E+00    0.597E+00
DAV:  15    -0.230223144936E+03    0.22132E+00   -0.11484E+00  2800   0.390E+00    0.476E+00
DAV:  16    -0.230033788981E+03    0.18936E+00   -0.17813E+00  3136   0.348E+00    0.150E+00
DAV:  17    -0.230022801392E+03    0.10988E-01   -0.13059E-01  3000   0.984E-01    0.891E-01
DAV:  18    -0.230010149991E+03    0.12651E-01   -0.12926E-01  3168   0.872E-01    0.435E-01
DAV:  19    -0.230009258190E+03    0.89180E-03   -0.20225E-02  2984   0.446E-01    0.157E-01
DAV:  20    -0.230009371960E+03   -0.11377E-03   -0.40428E-03  3200   0.194E-01    0.776E-02
DAV:  21    -0.230008537088E+03    0.83487E-03   -0.18743E-03  2944   0.113E-01    0.746E-02
DAV:  22    -0.230008782178E+03   -0.24509E-03   -0.30279E-04  3088   0.445E-02    0.507E-02
DAV:  23    -0.230009303338E+03   -0.52116E-03   -0.15383E-04  2392   0.340E-02    0.371E-02
DAV:  24    -0.230009560657E+03   -0.25732E-03   -0.35339E-04  3208   0.555E-02    0.291E-02
DAV:  25    -0.230009829455E+03   -0.26880E-03   -0.20331E-04  2944   0.404E-02    0.207E-02
DAV:  26    -0.230009933740E+03   -0.10429E-03   -0.54792E-05  2624   0.195E-02    0.844E-03
[...]
DAV:  37    -0.492494575019E+03    0.13860E-02   -0.66480E-03  6160   0.134E-01    0.925E-02
DAV:  38    -0.492495161707E+03   -0.58669E-03   -0.12727E-03  6200   0.810E-02    0.908E-02
DAV:  39    -0.492495459855E+03   -0.29815E-03   -0.74370E-04  6312   0.575E-02    0.663E-02
DAV:  40    -0.492495666418E+03   -0.20656E-03   -0.34489E-04  6112   0.392E-02    0.380E-02
DAV:  41    -0.492495748093E+03   -0.81675E-04   -0.19672E-04  6288   0.339E-02    0.401E-02
DAV:  42    -0.492495777732E+03   -0.29639E-04   -0.81600E-05  6144   0.218E-02    0.355E-02
DAV:  43    -0.492495796252E+03   -0.18520E-04   -0.56149E-05  5632   0.185E-02    0.341E-02
DAV:  44    -0.492495804431E+03   -0.81787E-05   -0.26933E-05  4896   0.132E-02    0.365E-02
DAV:  45    -0.492495796565E+03    0.78657E-05   -0.17477E-05  3648   0.115E-02    0.209E-02
DAV:  46    -0.492495793951E+03    0.26142E-05   -0.66605E-06  2816   0.806E-03
   1 F= -.49249579E+03 E0= -.49238541E+03  d E =-.220760E+00
Distance=10.000
 running on   16 total cores
 distrk:  each k-point on    8 cores,    2 groups
 distr:  one band on    4 cores,    2 groups
 using from now: INCAR     
 vasp.5.4.4.18Apr17-6-g9f103f2a35 (build Nov 27 2019 20:08:17) complex          
  
 POSCAR found type information on POSCAR  Ti
 POSCAR found :  1 types and      32 ions
 scaLAPACK will be used

 ----------------------------------------------------------------------------- 
|                                                                             |
|           W    W    AA    RRRRR   N    N  II  N    N   GGGG   !!!           |
|           W    W   A  A   R    R  NN   N  II  NN   N  G    G  !!!           |
|           W    W  A    A  R    R  N N  N  II  N N  N  G       !!!           |
|           W WW W  AAAAAA  RRRRR   N  N N  II  N  N N  G  GGG   !            |
|           WW  WW  A    A  R   R   N   NN  II  N   NN  G    G                |
|           W    W  A    A  R    R  N    N  II  N    N   GGGG   !!!           |
|                                                                             |
|      You have enabled k-point parallelism (KPAR>1).                         |
|      This developmental code was originally  written by Paul Kent at ORNL,  |
|      and carefully double checked in Vienna.                                |
|      GW as well as linear response parallelism added by Martijn Marsman     |
|      and Georg Kresse.                                                      |
|      Carefully verify results versus KPAR=1.                                |
|      Report problems to Paul Kent and Vienna.                               |
|                                                                             |
 ----------------------------------------------------------------------------- 

 LDA part: xc-table for Pade appr. of Perdew
 POSCAR found type information on POSCAR  Ti
 POSCAR found :  1 types and      32 ions
 POSCAR, INCAR and KPOINTS ok, starting setup
 FFT: planning ...
 WAVECAR not read
 entering main loop
       N       E                     dE             d eps       ncg     rms          rms(c)
DAV:   1     0.607770373475E+03    0.60777E+03   -0.33699E+04  1968   0.991E+02
DAV:   2    -0.174876750688E+03   -0.78265E+03   -0.74845E+03  2064   0.230E+02
DAV:   3    -0.278216128776E+03   -0.10334E+03   -0.98038E+02  3128   0.784E+01
DAV:   4    -0.286552931935E+03   -0.83368E+01   -0.77098E+01  3088   0.244E+01
DAV:   5    -0.287118969435E+03   -0.56604E+00   -0.54128E+00  3184   0.540E+00    0.670E+01
DAV:   6    -0.420647435829E+03   -0.13353E+03   -0.22896E+03  3680   0.956E+01    0.838E+01
DAV:   7    -0.273201473926E+03    0.14745E+03   -0.33379E+03  3496   0.175E+02    0.335E+01
DAV:   8    -0.242962001681E+03    0.30239E+02   -0.37576E+02  2942   0.662E+01    0.277E+01
DAV:   9    -0.242595432119E+03    0.36657E+00   -0.34543E+01  3296   0.146E+01    0.257E+01
DAV:  10    -0.238820652208E+03    0.37748E+01   -0.17350E+01  3142   0.114E+01    0.212E+01
DAV:  11    -0.240466747453E+03   -0.16461E+01   -0.16104E+00  3344   0.339E+00    0.228E+01
DAV:  12    -0.233034933160E+03    0.74318E+01   -0.19807E+01  3046   0.143E+01    0.128E+01
DAV:  13    -0.231530291703E+03    0.15046E+01   -0.29941E+00  3200   0.501E+00    0.881E+00
DAV:  14    -0.231025292109E+03    0.50500E+00   -0.45703E-01  3344   0.201E+00    0.729E+00
DAV:  15    -0.230047227425E+03    0.97806E+00   -0.42371E+00  3112   0.662E+00    0.242E+00
DAV:  16    -0.230075051055E+03   -0.27824E-01   -0.96772E-01  3144   0.259E+00    0.249E+00
DAV:  17    -0.230000203180E+03    0.74848E-01   -0.42909E-01  3054   0.190E+00    0.982E-01
DAV:  18    -0.230008210028E+03   -0.80068E-02   -0.67679E-02  3416   0.780E-01    0.801E-01
DAV:  19    -0.230005565401E+03    0.26446E-02   -0.23394E-02  3096   0.399E-01    0.397E-01
DAV:  20    -0.230005323406E+03    0.24200E-03   -0.74437E-03  3256   0.187E-01    0.149E-01
DAV:  21    -0.230006907245E+03   -0.15838E-02   -0.20062E-03  3192   0.101E-01    0.931E-02
DAV:  22    -0.230007579902E+03   -0.67266E-03   -0.51889E-04  3344   0.561E-02    0.978E-02
DAV:  23    -0.230008054968E+03   -0.47507E-03   -0.48286E-04  2952   0.619E-02    0.816E-02
DAV:  24    -0.230008255400E+03   -0.20043E-03   -0.37922E-04  3176   0.422E-02    0.427E-02
DAV:  25    -0.230008381583E+03   -0.12618E-03   -0.11271E-04  3032   0.288E-02    0.132E-02
DAV:  26    -0.230008483547E+03   -0.10196E-03   -0.37675E-05  2520   0.130E-02    0.170E-02
DAV:  27    -0.230008535045E+03   -0.51498E-04   -0.23570E-05  2016   0.147E-02    0.914E-03
DAV:  28    -0.230008555346E+03   -0.20301E-04   -0.31687E-06  1392   0.551E-03    0.617E-03
DAV:  29    -0.230008585494E+03   -0.30148E-04   -0.55617E-06  1496   0.787E-03    0.483E-03
DAV:  30    -0.230008600639E+03   -0.15145E-04   -0.23774E-06  1360   0.485E-03    0.251E-03
DAV:  31    -0.230008607206E+03   -0.65665E-05   -0.15939E-06  1344   0.338E-03    0.268E-03
DAV:  32    -0.230008611503E+03   -0.42970E-05   -0.85758E-07  1344   0.357E-03
   1 F= -.23000861E+03 E0= -.22995079E+03  d E =-.115643E+00
 running on   16 total cores
 distrk:  each k-point on    8 cores,    2 groups
 distr:  one band on    4 cores,    2 groups
 using from now: INCAR     
 vasp.5.4.4.18Apr17-6-g9f103f2a35 (build Nov 27 2019 20:08:17) complex          
  
 POSCAR found type information on POSCAR  Ti
 POSCAR found :  1 types and      36 ions
 scaLAPACK will be used

 ----------------------------------------------------------------------------- 
|                                                                             |
|           W    W    AA    RRRRR   N    N  II  N    N   GGGG   !!!           |
|           W    W   A  A   R    R  NN   N  II  NN   N  G    G  !!!           |
|           W    W  A    A  R    R  N N  N  II  N N  N  G       !!!           |
|           W WW W  AAAAAA  RRRRR   N  N N  II  N  N N  G  GGG   !            |
|           WW  WW  A    A  R   R   N   NN  II  N   NN  G    G                |
|           W    W  A    A  R    R  N    N  II  N    N   GGGG   !!!           |
|                                                                             |
|      You have enabled k-point parallelism (KPAR>1).                         |
|      This developmental code was originally  written by Paul Kent at ORNL,  |
|      and carefully double checked in Vienna.                                |
|      GW as well as linear response parallelism added by Martijn Marsman     |
|      and Georg Kresse.                                                      |
|      Carefully verify results versus KPAR=1.                                |
|      Report problems to Paul Kent and Vienna.                               |
|                                                                             |
 ----------------------------------------------------------------------------- 

 LDA part: xc-table for Pade appr. of Perdew
 POSCAR found type information on POSCAR  Ti
 POSCAR found :  1 types and      36 ions
 POSCAR, INCAR and KPOINTS ok, starting setup
 FFT: planning ...
 WAVECAR not read
 WARNING: random wavefunctions but no delay for mixing, default for NELMDL
 entering main loop
       N       E                     dE             d eps       ncg     rms          rms(c)
DAV:   1     0.768087469103E+03    0.76809E+03   -0.39607E+04  2208   0.102E+03
DAV:   2    -0.207281121709E+03   -0.97537E+03   -0.92838E+03  2388   0.240E+02
DAV:   3    -0.326523838967E+03   -0.11924E+03   -0.11057E+03  3248   0.858E+01
DAV:   4    -0.334277763512E+03   -0.77539E+01   -0.71625E+01  3208   0.265E+01
DAV:   5    -0.334745760735E+03   -0.46800E+00   -0.44935E+00  3536   0.529E+00    0.824E+01
DAV:   6    -0.528344815461E+03   -0.19360E+03   -0.28310E+03  4168   0.948E+01    0.109E+02
DAV:   7    -0.328637036487E+03    0.19971E+03   -0.56927E+03  4068   0.187E+02    0.443E+01
DAV:   8    -0.284936138988E+03    0.43701E+02   -0.67640E+02  3156   0.940E+01    0.398E+01
DAV:   9    -0.284126914874E+03    0.80922E+00   -0.53983E+01  3592   0.206E+01    0.365E+01
DAV:  10    -0.282776557636E+03    0.13504E+01   -0.42519E+00  3552   0.446E+00    0.352E+01
DAV:  11    -0.277887446587E+03    0.48891E+01   -0.24241E+00  3000   0.542E+00    0.295E+01
DAV:  12    -0.264178741246E+03    0.13709E+02   -0.29867E+01  3296   0.183E+01    0.982E+00
DAV:  13    -0.263791828691E+03    0.38691E+00   -0.13606E+00  3424   0.367E+00    0.834E+00
DAV:  14    -0.263221463561E+03    0.57037E+00   -0.59983E-01  3500   0.228E+00    0.663E+00
DAV:  15    -0.262719848794E+03    0.50161E+00   -0.15563E+00  2592   0.485E+00    0.462E+00
DAV:  16    -0.262447186791E+03    0.27266E+00   -0.22133E+00  3440   0.391E+00    0.182E+00
DAV:  17    -0.262468393936E+03   -0.21207E-01   -0.19204E-01  3720   0.963E-01    0.156E+00
DAV:  18    -0.262449203514E+03    0.19190E-01   -0.21594E-01  3284   0.154E+00    0.501E-01
DAV:  19    -0.262456413923E+03   -0.72104E-02   -0.69358E-02  2960   0.911E-01    0.641E-01
DAV:  20    -0.262452725615E+03    0.36883E-02   -0.30137E-02  3328   0.523E-01    0.180E-01
DAV:  21    -0.262455634803E+03   -0.29092E-02   -0.10201E-02  3568   0.300E-01    0.193E-01
DAV:  22    -0.262457483935E+03   -0.18491E-02   -0.21744E-03  2748   0.136E-01    0.155E-01
DAV:  23    -0.262457643681E+03   -0.15975E-03   -0.76298E-04  3024   0.101E-01    0.832E-02
DAV:  24    -0.262458037356E+03   -0.39368E-03   -0.30949E-04  3280   0.378E-02    0.321E-02
DAV:  25    -0.262458456047E+03   -0.41869E-03   -0.66924E-04  3512   0.668E-02    0.640E-02
DAV:  26    -0.262458535821E+03   -0.79774E-04   -0.82716E-05  3016   0.310E-02    0.373E-02
DAV:  27    -0.262458591084E+03   -0.55263E-04   -0.18099E-04  3360   0.397E-02    0.143E-02
DAV:  28    -0.262458620297E+03   -0.29213E-04   -0.68974E-06  1852   0.783E-03    0.986E-03
DAV:  29    -0.262458652663E+03   -0.32366E-04   -0.10279E-05  1692   0.988E-03    0.373E-03
DAV:  30    -0.262458665574E+03   -0.12911E-04   -0.19165E-06  1452   0.470E-03    0.251E-03
DAV:  31    -0.262458673373E+03   -0.77988E-05   -0.67848E-07  1356   0.212E-03    0.164E-03
DAV:  32    -0.262458685136E+03   -0.11763E-04   -0.54169E-07  1452   0.248E-03    0.138E-03
DAV:  33    -0.262458691643E+03   -0.65076E-05   -0.25013E-07  1356   0.115E-03    0.596E-04
DAV:  34    -0.262458695239E+03   -0.35953E-05   -0.19087E-07  1324   0.921E-04
   1 F= -.26245870E+03 E0= -.26240624E+03  d E =-.104910E+00
 running on   16 total cores
 distrk:  each k-point on    8 cores,    2 groups
 distr:  one band on    4 cores,    2 groups
 using from now: INCAR     
 vasp.5.4.4.18Apr17-6-g9f103f2a35 (build Nov 27 2019 20:08:17) complex          
  
 POSCAR found type information on POSCAR  Ti
 POSCAR found :  1 types and      68 ions
 scaLAPACK will be used

 ----------------------------------------------------------------------------- 
|                                                                             |
|           W    W    AA    RRRRR   N    N  II  N    N   GGGG   !!!           |
|           W    W   A  A   R    R  NN   N  II  NN   N  G    G  !!!           |
|           W    W  A    A  R    R  N N  N  II  N N  N  G       !!!           |
|           W WW W  AAAAAA  RRRRR   N  N N  II  N  N N  G  GGG   !            |
|           WW  WW  A    A  R   R   N   NN  II  N   NN  G    G                |
|           W    W  A    A  R    R  N    N  II  N    N   GGGG   !!!           |
|                                                                             |
|      You have enabled k-point parallelism (KPAR>1).                         |
|      This developmental code was originally  written by Paul Kent at ORNL,  |
|      and carefully double checked in Vienna.                                |
|      GW as well as linear response parallelism added by Martijn Marsman     |
|      and Georg Kresse.                                                      |
|      Carefully verify results versus KPAR=1.                                |
|      Report problems to Paul Kent and Vienna.                               |
|                                                                             |
 ----------------------------------------------------------------------------- 

 LDA part: xc-table for Pade appr. of Perdew
 POSCAR found type information on POSCAR  Ti
 POSCAR found :  1 types and      68 ions
 POSCAR, INCAR and KPOINTS ok, starting setup
 FFT: planning ...
 WAVECAR not read
 WARNING: random wavefunctions but no delay for mixing, default for NELMDL
 entering main loop
       N       E                     dE             d eps       ncg     rms          rms(c)
DAV:   1     0.132665553867E+04    0.13267E+04   -0.78035E+04  4128   0.113E+03
DAV:   2    -0.354797126448E+03   -0.16815E+04   -0.16187E+04  4128   0.253E+02
DAV:   3    -0.614876219098E+03   -0.26008E+03   -0.24404E+03  6288   0.919E+01
DAV:   4    -0.634594346775E+03   -0.19718E+02   -0.18521E+02  6104   0.289E+01
DAV:   5    -0.635617712050E+03   -0.10234E+01   -0.99138E+00  6528   0.560E+00    0.109E+02
DAV:   6    -0.629198783801E+04   -0.56564E+04   -0.57142E+04  5920   0.122E+02    0.205E+02
DAV:   7    -0.615967685753E+03    0.56760E+04   -0.64698E+03  6232   0.135E+02    0.111E+02
DAV:   8    -0.103446963740E+04   -0.41850E+03   -0.18811E+04  8256   0.205E+02    0.993E+01
DAV:   9    -0.121276677819E+04   -0.17830E+03   -0.16079E+04  8012   0.190E+02    0.154E+02
DAV:  10    -0.499377931905E+03    0.71339E+03   -0.65428E+03  7648   0.153E+02    0.428E+01
DAV:  11    -0.561361906418E+03   -0.61984E+02   -0.11364E+03  6368   0.719E+01    0.598E+01
DAV:  12    -0.532343314147E+03    0.29019E+02   -0.12034E+02  6656   0.252E+01    0.452E+01
DAV:  13    -0.525196555988E+03    0.71468E+01   -0.35556E+01  6944   0.169E+01    0.420E+01
DAV:  14    -0.521657094159E+03    0.35395E+01   -0.69891E+00  6384   0.635E+00    0.394E+01
DAV:  15    -0.517535556033E+03    0.41215E+01   -0.68966E+00  6480   0.698E+00    0.357E+01
DAV:  16    -0.511011573080E+03    0.65240E+01   -0.72707E+00  6528   0.751E+00    0.296E+01
DAV:  17    -0.505632303948E+03    0.53793E+01   -0.23104E+01  6272   0.103E+01    0.226E+01
DAV:  18    -0.501000017788E+03    0.46323E+01   -0.17116E+01  6372   0.632E+00    0.200E+01
DAV:  19    -0.503029549538E+03   -0.20295E+01   -0.19292E+01  5880   0.784E+00    0.225E+01
DAV:  20    -0.498612546662E+03    0.44170E+01   -0.82275E+00  6352   0.366E+00    0.164E+01
DAV:  21    -0.494676239616E+03    0.39363E+01   -0.68554E+00  6312   0.586E+00    0.106E+01
DAV:  22    -0.493773522849E+03    0.90272E+00   -0.42088E+00  6296   0.450E+00    0.953E+00
DAV:  23    -0.495377292598E+03   -0.16038E+01   -0.61851E+00  6464   0.339E+00    0.138E+01
DAV:  24    -0.496056987679E+03   -0.67970E+00   -0.12368E+00  6248   0.202E+00    0.148E+01
DAV:  25    -0.494795640367E+03    0.12613E+01   -0.19515E+00  6424   0.257E+00    0.118E+01
DAV:  26    -0.493338437199E+03    0.14572E+01   -0.22076E+00  6640   0.164E+00    0.786E+00
DAV:  27    -0.493016434484E+03    0.32200E+00   -0.30415E-01  6616   0.117E+00    0.645E+00
DAV:  28    -0.492988112700E+03    0.28322E-01   -0.37279E-02  6456   0.453E-01    0.621E+00
DAV:  29    -0.492987193836E+03    0.91886E-03   -0.28832E-03  6240   0.111E-01    0.617E+00
DAV:  30    -0.492922792077E+03    0.64402E-01   -0.75305E-02  6448   0.575E-01    0.572E+00
DAV:  31    -0.492594698867E+03    0.32809E+00   -0.10399E+00  6104   0.139E+00    0.311E+00
DAV:  32    -0.492555943344E+03    0.38756E-01   -0.13573E-01  6424   0.697E-01    0.245E+00
DAV:  33    -0.492509297573E+03    0.46646E-01   -0.12237E-01  6488   0.693E-01    0.162E+00
DAV:  34    -0.492492734358E+03    0.16563E-01   -0.69309E-02  6376   0.613E-01    0.958E-01
DAV:  35    -0.492492495515E+03    0.23884E-03   -0.36689E-02  6296   0.433E-01    0.806E-01
DAV:  36    -0.492488443033E+03    0.40525E-02   -0.24344E-02  6360   0.351E-01    0.561E-01
DAV:  37    -0.492488333472E+03    0.10956E-03   -0.17356E-02  6408   0.313E-01    0.361E-01
DAV:  38    -0.492489142882E+03   -0.80941E-03   -0.71103E-03  6208   0.201E-01    0.199E-01
DAV:  39    -0.492490424898E+03   -0.12820E-02   -0.28165E-03  6416   0.119E-01    0.175E-01
DAV:  40    -0.492492153030E+03   -0.17281E-02   -0.24551E-03  5848   0.123E-01    0.276E-01
DAV:  41    -0.492491944022E+03    0.20901E-03   -0.93719E-04  6168   0.785E-02    0.181E-01
DAV:  42    -0.492491805774E+03    0.13825E-03   -0.64970E-04  6160   0.632E-02    0.718E-02
DAV:  43    -0.492492099730E+03   -0.29396E-03   -0.32152E-04  5672   0.381E-02    0.560E-02
DAV:  44    -0.492492130519E+03   -0.30789E-04   -0.97809E-05  6192   0.241E-02    0.372E-02
DAV:  45    -0.492492146203E+03   -0.15684E-04   -0.85432E-05  6048   0.195E-02    0.237E-02
DAV:  46    -0.492492164764E+03   -0.18561E-04   -0.40385E-05  4632   0.161E-02    0.185E-02
DAV:  47    -0.492492167952E+03   -0.31882E-05   -0.13551E-05  3704   0.944E-03
   1 F= -.49249217E+03 E0= -.49238179E+03  d E =-.220764E+00

DISTANCE=0.500
E_alpha= -230.012083  E_beta= -262.462213  E_total=  -68.089338 
W_seq=424.384958

DISTANCE=1.000
E_alpha= -230.009995  E_beta= -262.459876  E_total= -435.530109 
W_seq=56.939762

DISTANCE=1.500
E_alpha= -230.010253  E_beta= -262.460241  E_total= -503.683044 
W_seq=-11.212550

DISTANCE=2.000
E_alpha= -230.008957  E_beta= -262.458867  E_total= -511.688322 
W_seq=-19.220498

DISTANCE=2.500
E_alpha= -230.008989  E_beta= -262.458835  E_total= -509.464630 
W_seq=-16.996806

DISTANCE=3.000
E_alpha= -230.009971  E_beta= -262.460013  E_total= -505.539340 
W_seq=-13.069356

DISTANCE=3.500
E_alpha= -230.008706  E_beta= -262.458783  E_total= -501.514544 
W_seq=-9.047055

DISTANCE=4.000
E_alpha= -230.008707  E_beta= -262.458733  E_total= -498.289933 
W_seq=-5.822493

DISTANCE=4.500
E_alpha= -230.008851  E_beta= -262.458737  E_total= -496.003682 
W_seq=-3.536094

DISTANCE=5.000
E_alpha= -230.008776  E_beta= -262.458744  E_total= -494.499342 
W_seq=-2.031822

DISTANCE=5.500
E_alpha= -230.008875  E_beta= -262.458913  E_total= -493.567981 
W_seq=-1.100193

DISTANCE=6.000
E_alpha= -230.008875  E_beta= -262.458733  E_total= -493.028782 
W_seq=-0.561174

DISTANCE=6.500
E_alpha= -230.009344  E_beta= -262.459350  E_total= -492.745682 
W_seq=-0.276988

DISTANCE=7.000
E_alpha= -230.008826  E_beta= -262.458848  E_total= -492.609810 
W_seq=-0.142136

DISTANCE=7.500
E_alpha= -230.009834  E_beta= -262.459812  E_total= -492.551693 
W_seq=-0.082047

DISTANCE=8.000
E_alpha= -230.008584  E_beta= -262.458460  E_total= -492.521322 
W_seq=-0.054278

DISTANCE=8.500
E_alpha= -230.008736  E_beta= -262.458573  E_total= -492.507795 
W_seq=-0.040486

DISTANCE=9.000
E_alpha= -230.008652  E_beta= -262.458507  E_total= -492.499987 
W_seq=-0.032828

DISTANCE=9.500
E_alpha= -230.008887  E_beta= -262.458805  E_total= -492.495794 
W_seq=-0.028102

DISTANCE=10.000
E_alpha= -230.008612  E_beta= -262.458695  E_total= -492.492168 
W_seq=-0.024861

