Distance=1.550
 running on   16 total cores
 distrk:  each k-point on    8 cores,    2 groups
 distr:  one band on    4 cores,    2 groups
 using from now: INCAR     
 vasp.5.4.4.18Apr17-6-g9f103f2a35 (build Nov 27 2019 20:08:17) complex          
  
 POSCAR found type information on POSCAR  Ti
 POSCAR found :  1 types and      54 ions
 scaLAPACK will be used

 ----------------------------------------------------------------------------- 
|                                                                             |
|           W    W    AA    RRRRR   N    N  II  N    N   GGGG   !!!           |
|           W    W   A  A   R    R  NN   N  II  NN   N  G    G  !!!           |
|           W    W  A    A  R    R  N N  N  II  N N  N  G       !!!           |
|           W WW W  AAAAAA  RRRRR   N  N N  II  N  N N  G  GGG   !            |
|           WW  WW  A    A  R   R   N   NN  II  N   NN  G    G                |
|           W    W  A    A  R    R  N    N  II  N    N   GGGG   !!!           |
|                                                                             |
|      You have enabled k-point parallelism (KPAR>1).                         |
|      This developmental code was originally  written by Paul Kent at ORNL,  |
|      and carefully double checked in Vienna.                                |
|      GW as well as linear response parallelism added by Martijn Marsman     |
|      and Georg Kresse.                                                      |
|      Carefully verify results versus KPAR=1.                                |
|      Report problems to Paul Kent and Vienna.                               |
|                                                                             |
 ----------------------------------------------------------------------------- 

 LDA part: xc-table for Pade appr. of Perdew
 POSCAR found type information on POSCAR  Ti
 POSCAR found :  1 types and      54 ions
 POSCAR, INCAR and KPOINTS ok, starting setup
 FFT: planning ...
 WAVECAR not read
 WARNING: random wavefunctions but no delay for mixing, default for NELMDL
 entering main loop
       N       E                     dE             d eps       ncg     rms          rms(c)
DAV:   1     0.992363132416E+03    0.99236E+03   -0.62168E+04  1904   0.116E+03
DAV:   2    -0.281026504835E+03   -0.12734E+04   -0.12340E+04  1904   0.257E+02
DAV:   3    -0.468799811593E+03   -0.18777E+03   -0.17823E+03  3008   0.883E+01
DAV:   4    -0.485221517991E+03   -0.16422E+02   -0.15611E+02  3064   0.269E+01
DAV:   5    -0.486220184315E+03   -0.99867E+00   -0.94519E+00  3040   0.531E+00    0.858E+01
DAV:   6    -0.924702585800E+03   -0.43848E+03   -0.53511E+03  3768   0.108E+02    0.127E+02
DAV:   7    -0.434632011805E+03    0.49007E+03   -0.69166E+03  3440   0.157E+02    0.476E+01
DAV:   8    -0.407395087957E+03    0.27237E+02   -0.10208E+03  3112   0.900E+01    0.321E+01
DAV:   9    -0.415324975147E+03   -0.79299E+01   -0.19201E+02  3168   0.269E+01    0.289E+01
DAV:  10    -0.417481220409E+03   -0.21562E+01   -0.17430E+01  3128   0.749E+00    0.309E+01
DAV:  11    -0.417339745733E+03    0.14147E+00   -0.16207E+00  3136   0.160E+00    0.306E+01
DAV:  12    -0.415822519078E+03    0.15172E+01   -0.27716E+00  3064   0.428E+00    0.294E+01
DAV:  13    -0.408773212504E+03    0.70493E+01   -0.49224E+00  2304   0.732E+00    0.251E+01
DAV:  14    -0.404996885436E+03    0.37763E+01   -0.22495E+01  2912   0.129E+01    0.197E+01
DAV:  15    -0.405003031720E+03   -0.61463E-02   -0.80978E-01  2984   0.214E+00    0.199E+01
DAV:  16    -0.405007129274E+03   -0.40976E-02   -0.37961E-02  3072   0.319E-01    0.200E+01
DAV:  17    -0.404891979876E+03    0.11515E+00   -0.84249E-02  2960   0.806E-01    0.199E+01
DAV:  18    -0.402384282231E+03    0.25077E+01   -0.35709E+00  2552   0.504E+00    0.140E+01
DAV:  19    -0.401536363183E+03    0.84792E+00   -0.12174E+00  3008   0.196E+00    0.984E+00
DAV:  20    -0.401646693099E+03   -0.11033E+00   -0.56794E-01  2816   0.206E+00    0.970E+00
DAV:  21    -0.400414212010E+03    0.12325E+01   -0.30492E+00  3080   0.352E+00    0.337E+00
DAV:  22    -0.400364812194E+03    0.49400E-01   -0.38053E-01  2840   0.137E+00    0.256E+00
DAV:  23    -0.400325061354E+03    0.39751E-01   -0.32550E-01  2752   0.161E+00    0.208E+00
DAV:  24    -0.400275951846E+03    0.49110E-01   -0.77626E-02  2952   0.623E-01    0.161E+00
DAV:  25    -0.400254662070E+03    0.21290E-01   -0.41191E-02  3072   0.472E-01    0.124E+00
DAV:  26    -0.400255728387E+03   -0.10663E-02   -0.17945E-02  2368   0.428E-01    0.988E-01
DAV:  27    -0.400244967738E+03    0.10761E-01   -0.23180E-02  3136   0.319E-01    0.636E-01
DAV:  28    -0.400242874695E+03    0.20930E-02   -0.55512E-03  2888   0.190E-01    0.528E-01
DAV:  29    -0.400240655352E+03    0.22193E-02   -0.65000E-03  3088   0.151E-01    0.348E-01
DAV:  30    -0.400240096231E+03    0.55912E-03   -0.10673E-03  3000   0.720E-02    0.279E-01
DAV:  31    -0.400239799025E+03    0.29721E-03   -0.27918E-04  3184   0.253E-02    0.223E-01
DAV:  32    -0.400239471709E+03    0.32732E-03   -0.43826E-04  3008   0.385E-02    0.139E-01
DAV:  33    -0.400239348929E+03    0.12278E-03   -0.17760E-04  3128   0.216E-02    0.963E-02
DAV:  34    -0.400239322579E+03    0.26350E-04   -0.25381E-05  2088   0.104E-02    0.807E-02
DAV:  35    -0.400239265919E+03    0.56660E-04   -0.11469E-04  2968   0.163E-02    0.441E-02
DAV:  36    -0.400239254665E+03    0.11254E-04   -0.35460E-05  2488   0.121E-02    0.180E-02
DAV:  37    -0.400239251429E+03    0.32362E-05   -0.78398E-06  1472   0.719E-03
   1 F= -.40023925E+03 E0= -.40018476E+03  d E =-.108978E+00
 running on   16 total cores
 distrk:  each k-point on    8 cores,    2 groups
 distr:  one band on    4 cores,    2 groups
 using from now: INCAR     
 vasp.5.4.4.18Apr17-6-g9f103f2a35 (build Nov 27 2019 20:08:17) complex          
  
 POSCAR found type information on POSCAR  Ti
 POSCAR found :  1 types and      36 ions
 scaLAPACK will be used

 ----------------------------------------------------------------------------- 
|                                                                             |
|           W    W    AA    RRRRR   N    N  II  N    N   GGGG   !!!           |
|           W    W   A  A   R    R  NN   N  II  NN   N  G    G  !!!           |
|           W    W  A    A  R    R  N N  N  II  N N  N  G       !!!           |
|           W WW W  AAAAAA  RRRRR   N  N N  II  N  N N  G  GGG   !            |
|           WW  WW  A    A  R   R   N   NN  II  N   NN  G    G                |
|           W    W  A    A  R    R  N    N  II  N    N   GGGG   !!!           |
|                                                                             |
|      You have enabled k-point parallelism (KPAR>1).                         |
|      This developmental code was originally  written by Paul Kent at ORNL,  |
|      and carefully double checked in Vienna.                                |
|      GW as well as linear response parallelism added by Martijn Marsman     |
|      and Georg Kresse.                                                      |
|      Carefully verify results versus KPAR=1.                                |
|      Report problems to Paul Kent and Vienna.                               |
|                                                                             |
 ----------------------------------------------------------------------------- 

 LDA part: xc-table for Pade appr. of Perdew
 POSCAR found type information on POSCAR  Ti
 POSCAR found :  1 types and      36 ions
 POSCAR, INCAR and KPOINTS ok, starting setup
 FFT: planning ...
 WAVECAR not read
 WARNING: random wavefunctions but no delay for mixing, default for NELMDL
 entering main loop
       N       E                     dE             d eps       ncg     rms          rms(c)
DAV:   1     0.723305502420E+03    0.72331E+03   -0.40571E+04  1288   0.107E+03
DAV:   2    -0.185796172076E+03   -0.90910E+03   -0.87264E+03  1288   0.242E+02
DAV:   3    -0.320253961344E+03   -0.13446E+03   -0.12600E+03  1968   0.862E+01
DAV:   4    -0.330583071529E+03   -0.10329E+02   -0.95869E+01  1920   0.282E+01
DAV:   5    -0.331134899179E+03   -0.55183E+00   -0.53762E+00  2024   0.588E+00    0.781E+01
DAV:   6    -0.499883867185E+03   -0.16875E+03   -0.28780E+03  2440   0.987E+01    0.997E+01
DAV:   7    -0.286332485200E+03    0.21355E+03   -0.39061E+03  2228   0.176E+02    0.339E+01
DAV:   8    -0.285399156478E+03    0.93333E+00   -0.56777E+02  1888   0.775E+01    0.386E+01
DAV:   9    -0.268642390744E+03    0.16757E+02   -0.91264E+01  2004   0.313E+01    0.289E+01
DAV:  10    -0.266503207551E+03    0.21392E+01   -0.66220E+00  2080   0.694E+00    0.269E+01
DAV:  11    -0.264764115311E+03    0.17391E+01   -0.12453E+00  2148   0.309E+00    0.244E+01
DAV:  12    -0.261469328920E+03    0.32948E+01   -0.12695E+01  1912   0.108E+01    0.191E+01
DAV:  13    -0.256357444426E+03    0.51119E+01   -0.23618E+01  2128   0.130E+01    0.677E+00
DAV:  14    -0.256080309900E+03    0.27713E+00   -0.23919E+00  2104   0.413E+00    0.459E+00
DAV:  15    -0.256163977591E+03   -0.83668E-01   -0.56889E-01  2040   0.209E+00    0.485E+00
DAV:  16    -0.255891892160E+03    0.27209E+00   -0.20239E+00  2080   0.353E+00    0.279E+00
DAV:  17    -0.255797259905E+03    0.94632E-01   -0.40532E-01  1992   0.194E+00    0.128E+00
DAV:  18    -0.255795476865E+03    0.17830E-02   -0.32711E-01  2056   0.180E+00    0.106E+00
DAV:  19    -0.255837282664E+03   -0.41806E-01   -0.58212E-01  1952   0.211E+00    0.191E+00
DAV:  20    -0.255804000035E+03    0.33283E-01   -0.14556E-01  1960   0.109E+00    0.774E-01
DAV:  21    -0.255795683004E+03    0.83170E-02   -0.46245E-02  1928   0.716E-01    0.182E-01
DAV:  22    -0.255796088187E+03   -0.40518E-03   -0.34067E-03  1992   0.156E-01    0.173E-01
DAV:  23    -0.255796407336E+03   -0.31915E-03   -0.18023E-03  1928   0.108E-01    0.114E-01
DAV:  24    -0.255796726730E+03   -0.31939E-03   -0.25462E-03  2064   0.146E-01    0.955E-02
DAV:  25    -0.255796929784E+03   -0.20305E-03   -0.62761E-04  1992   0.764E-02    0.295E-02
DAV:  26    -0.255797278416E+03   -0.34863E-03   -0.24570E-04  1960   0.359E-02    0.393E-02
DAV:  27    -0.255797515793E+03   -0.23738E-03   -0.15669E-04  1880   0.345E-02    0.128E-02
DAV:  28    -0.255797686662E+03   -0.17087E-03   -0.16122E-05  1312   0.131E-02    0.524E-03
DAV:  29    -0.255797747422E+03   -0.60760E-04   -0.44338E-06   920   0.760E-03    0.500E-03
DAV:  30    -0.255797764107E+03   -0.16686E-04   -0.56714E-06   952   0.557E-03    0.967E-03
DAV:  31    -0.255797767083E+03   -0.29763E-05   -0.17453E-06   888   0.470E-03
   1 F= -.25579777E+03 E0= -.25572899E+03  d E =-.137557E+00
 running on   16 total cores
 distrk:  each k-point on    8 cores,    2 groups
 distr:  one band on    4 cores,    2 groups
 using from now: INCAR     
 vasp.5.4.4.18Apr17-6-g9f103f2a35 (build Nov 27 2019 20:08:17) complex          
  
 POSCAR found type information on POSCAR  Ti
 POSCAR found :  1 types and      90 ions
 scaLAPACK will be used

 ----------------------------------------------------------------------------- 
|                                                                             |
|           W    W    AA    RRRRR   N    N  II  N    N   GGGG   !!!           |
|           W    W   A  A   R    R  NN   N  II  NN   N  G    G  !!!           |
|           W    W  A    A  R    R  N N  N  II  N N  N  G       !!!           |
|           W WW W  AAAAAA  RRRRR   N  N N  II  N  N N  G  GGG   !            |
|           WW  WW  A    A  R   R   N   NN  II  N   NN  G    G                |
|           W    W  A    A  R    R  N    N  II  N    N   GGGG   !!!           |
|                                                                             |
|      You have enabled k-point parallelism (KPAR>1).                         |
|      This developmental code was originally  written by Paul Kent at ORNL,  |
|      and carefully double checked in Vienna.                                |
|      GW as well as linear response parallelism added by Martijn Marsman     |
|      and Georg Kresse.                                                      |
|      Carefully verify results versus KPAR=1.                                |
|      Report problems to Paul Kent and Vienna.                               |
|                                                                             |
 ----------------------------------------------------------------------------- 

 LDA part: xc-table for Pade appr. of Perdew
 POSCAR found type information on POSCAR  Ti
 POSCAR found :  1 types and      90 ions

 ----------------------------------------------------------------------------- 
|                                                                             |
|           W    W    AA    RRRRR   N    N  II  N    N   GGGG   !!!           |
|           W    W   A  A   R    R  NN   N  II  NN   N  G    G  !!!           |
|           W    W  A    A  R    R  N N  N  II  N N  N  G       !!!           |
|           W WW W  AAAAAA  RRRRR   N  N N  II  N  N N  G  GGG   !            |
|           WW  WW  A    A  R   R   N   NN  II  N   NN  G    G                |
|           W    W  A    A  R    R  N    N  II  N    N   GGGG   !!!           |
|                                                                             |
|      The distance between some ions is very small                           |
|      please check the nearest neigbor list in the OUTCAR file               |
|          I HOPE YOU KNOW, WHAT YOU ARE  DOING                               |
|                                                                             |
 ----------------------------------------------------------------------------- 

 POSCAR, INCAR and KPOINTS ok, starting setup
 FFT: planning ...
 WAVECAR not read
 WARNING: random wavefunctions but no delay for mixing, default for NELMDL
 entering main loop
       N       E                     dE             d eps       ncg     rms          rms(c)
DAV:   1     0.157613348081E+04    0.15761E+04   -0.10357E+05  3164   0.125E+03
DAV:   2    -0.462969459218E+03   -0.20391E+04   -0.19825E+04  3164   0.279E+02
DAV:   3    -0.765248174593E+03   -0.30228E+03   -0.28213E+03  4672   0.981E+01
DAV:   4    -0.789690973068E+03   -0.24443E+02   -0.22994E+02  4648   0.292E+01
DAV:   5    -0.790656018425E+03   -0.96505E+00   -0.93899E+00  4560   0.459E+00    0.119E+02
DAV:   6    -0.206845089483E+04   -0.12778E+04   -0.12463E+04  6260   0.185E+02    0.163E+02
DAV:   7    -0.100964233384E+04    0.10588E+04   -0.18538E+04  5788   0.182E+02    0.957E+01
DAV:   8    -0.697096807692E+03    0.31255E+03   -0.34948E+03  5066   0.147E+02    0.646E+01
DAV:   9    -0.774590687537E+03   -0.77494E+02   -0.14546E+03  5658   0.880E+01    0.611E+01
DAV:  10    -0.722643917675E+03    0.51947E+02   -0.57155E+02  5632   0.599E+01    0.517E+01
DAV:  11    -0.701743829584E+03    0.20900E+02   -0.14400E+02  5136   0.249E+01    0.419E+01
DAV:  12    -0.700009852780E+03    0.17340E+01   -0.14724E+01  4888   0.748E+00    0.406E+01
DAV:  13    -0.697667970583E+03    0.23419E+01   -0.18794E+00  4816   0.286E+00    0.376E+01
DAV:  14    -0.692011051793E+03    0.56569E+01   -0.81711E+00  4880   0.630E+00    0.311E+01
DAV:  15    -0.686391304904E+03    0.56197E+01   -0.10118E+01  4824   0.742E+00    0.233E+01
DAV:  16    -0.683190460926E+03    0.32008E+01   -0.43410E+00  4656   0.526E+00    0.184E+01
DAV:  17    -0.680942152105E+03    0.22483E+01   -0.59258E+00  4832   0.576E+00    0.143E+01
DAV:  18    -0.678209106119E+03    0.27330E+01   -0.72186E+00  4344   0.647E+00    0.763E+00
DAV:  19    -0.677430539996E+03    0.77857E+00   -0.38057E+00  4520   0.467E+00    0.451E+00
DAV:  20    -0.677122095439E+03    0.30844E+00   -0.20237E+00  4480   0.345E+00    0.238E+00
DAV:  21    -0.677087874701E+03    0.34221E-01   -0.50323E-01  4720   0.162E+00    0.191E+00
DAV:  22    -0.677083601225E+03    0.42735E-02   -0.27152E-01  4456   0.124E+00    0.159E+00
DAV:  23    -0.677090023110E+03   -0.64219E-02   -0.14195E-01  4712   0.842E-01    0.152E+00
DAV:  24    -0.677068149616E+03    0.21873E-01   -0.18826E-01  4456   0.104E+00    0.843E-01
DAV:  25    -0.677064374464E+03    0.37752E-02   -0.69154E-02  4600   0.607E-01    0.580E-01
DAV:  26    -0.677061872501E+03    0.25020E-02   -0.22046E-02  4800   0.334E-01    0.431E-01
DAV:  27    -0.677061150619E+03    0.72188E-03   -0.84927E-03  4808   0.195E-01    0.370E-01
DAV:  28    -0.677060823016E+03    0.32760E-03   -0.22950E-03  4808   0.102E-01    0.310E-01
DAV:  29    -0.677059924400E+03    0.89862E-03   -0.33307E-03  3952   0.146E-01    0.109E-01
DAV:  30    -0.677059893329E+03    0.31071E-04   -0.90474E-04  4688   0.689E-02    0.559E-02
DAV:  31    -0.677059862416E+03    0.30912E-04   -0.27505E-04  4704   0.360E-02    0.371E-02
DAV:  32    -0.677059858514E+03    0.39028E-05   -0.14558E-04  4528   0.282E-02    0.277E-02
DAV:  33    -0.677059846116E+03    0.12398E-04   -0.76288E-05  4480   0.196E-02    0.238E-02
DAV:  34    -0.677059836877E+03    0.92390E-05   -0.33049E-05  3648   0.130E-02    0.120E-02
DAV:  35    -0.677059835810E+03    0.10669E-05   -0.95257E-06  2048   0.925E-03
   1 F= -.67705984E+03 E0= -.67696611E+03  d E =-.187457E+00
Distance=1.600
 running on   16 total cores
 distrk:  each k-point on    8 cores,    2 groups
 distr:  one band on    4 cores,    2 groups
 using from now: INCAR     
 vasp.5.4.4.18Apr17-6-g9f103f2a35 (build Nov 27 2019 20:08:17) complex          
  
 POSCAR found type information on POSCAR  Ti
 POSCAR found :  1 types and      54 ions
 scaLAPACK will be used

 ----------------------------------------------------------------------------- 
|                                                                             |
|           W    W    AA    RRRRR   N    N  II  N    N   GGGG   !!!           |
|           W    W   A  A   R    R  NN   N  II  NN   N  G    G  !!!           |
|           W    W  A    A  R    R  N N  N  II  N N  N  G       !!!           |
|           W WW W  AAAAAA  RRRRR   N  N N  II  N  N N  G  GGG   !            |
|           WW  WW  A    A  R   R   N   NN  II  N   NN  G    G                |
|           W    W  A    A  R    R  N    N  II  N    N   GGGG   !!!           |
|                                                                             |
|      You have enabled k-point parallelism (KPAR>1).                         |
|      This developmental code was originally  written by Paul Kent at ORNL,  |
|      and carefully double checked in Vienna.                                |
|      GW as well as linear response parallelism added by Martijn Marsman     |
|      and Georg Kresse.                                                      |
|      Carefully verify results versus KPAR=1.                                |
|      Report problems to Paul Kent and Vienna.                               |
|                                                                             |
 ----------------------------------------------------------------------------- 

 LDA part: xc-table for Pade appr. of Perdew
 POSCAR found type information on POSCAR  Ti
 POSCAR found :  1 types and      54 ions
 POSCAR, INCAR and KPOINTS ok, starting setup
 FFT: planning ...
 WAVECAR not read
 WARNING: random wavefunctions but no delay for mixing, default for NELMDL
 entering main loop
       N       E                     dE             d eps       ncg     rms          rms(c)
DAV:   1     0.987019644328E+03    0.98702E+03   -0.61975E+04  1904   0.116E+03
DAV:   2    -0.281268476016E+03   -0.12683E+04   -0.12302E+04  1904   0.257E+02
DAV:   3    -0.468496782055E+03   -0.18723E+03   -0.17769E+03  2984   0.879E+01
DAV:   4    -0.485203702615E+03   -0.16707E+02   -0.15839E+02  3056   0.273E+01
DAV:   5    -0.486219375100E+03   -0.10157E+01   -0.96685E+00  3040   0.544E+00    0.858E+01
DAV:   6    -0.923373631975E+03   -0.43715E+03   -0.53388E+03  3768   0.108E+02    0.127E+02
DAV:   7    -0.435647362531E+03    0.48773E+03   -0.69678E+03  3424   0.157E+02    0.479E+01
DAV:   8    -0.407361599589E+03    0.28286E+02   -0.10329E+03  3112   0.905E+01    0.322E+01
DAV:   9    -0.415363844219E+03   -0.80022E+01   -0.19240E+02  3144   0.269E+01    0.290E+01
DAV:  10    -0.417594863737E+03   -0.22310E+01   -0.18659E+01  3168   0.767E+00    0.309E+01
DAV:  11    -0.417509679093E+03    0.85185E-01   -0.16432E+00  3120   0.160E+00    0.308E+01
DAV:  12    -0.416491994717E+03    0.10177E+01   -0.28660E+00  3080   0.430E+00    0.300E+01
DAV:  13    -0.410923848424E+03    0.55681E+01   -0.28038E+00  2296   0.554E+00    0.275E+01
DAV:  14    -0.406270336166E+03    0.46535E+01   -0.27778E+01  2904   0.143E+01    0.229E+01
DAV:  15    -0.406301472533E+03   -0.31136E-01   -0.97025E-01  3008   0.239E+00    0.231E+01
DAV:  16    -0.406291803696E+03    0.96688E-02   -0.38573E-02  3120   0.337E-01    0.232E+01
DAV:  17    -0.406267080083E+03    0.24724E-01   -0.35257E-02  3000   0.506E-01    0.232E+01
DAV:  18    -0.405600572717E+03    0.66651E+00   -0.16912E-01  2560   0.100E+00    0.222E+01
DAV:  19    -0.402878136089E+03    0.27224E+01   -0.31196E+00  2728   0.348E+00    0.159E+01
DAV:  20    -0.402593132866E+03    0.28500E+00   -0.14852E+00  2784   0.278E+00    0.130E+01
DAV:  21    -0.400930092307E+03    0.16630E+01   -0.27317E+00  3048   0.305E+00    0.683E+00
DAV:  22    -0.400911464848E+03    0.18627E-01   -0.22371E-01  2544   0.124E+00    0.638E+00
DAV:  23    -0.400493220668E+03    0.41824E+00   -0.50164E-01  2608   0.175E+00    0.391E+00
DAV:  24    -0.400246212439E+03    0.24701E+00   -0.91208E-01  3096   0.214E+00    0.145E+00
DAV:  25    -0.400258482589E+03   -0.12270E-01   -0.21787E-01  2872   0.132E+00    0.106E+00
DAV:  26    -0.400261281066E+03   -0.27985E-02   -0.16468E-02  3104   0.331E-01    0.117E+00
DAV:  27    -0.400259610469E+03    0.16706E-02   -0.51107E-03  2560   0.140E-01    0.112E+00
DAV:  28    -0.400247863407E+03    0.11747E-01   -0.27304E-02  3008   0.307E-01    0.982E-01
DAV:  29    -0.400247514751E+03    0.34866E-03   -0.37355E-03  2872   0.150E-01    0.883E-01
DAV:  30    -0.400246677300E+03    0.83745E-03   -0.21033E-03  3000   0.917E-02    0.789E-01
DAV:  31    -0.400244521769E+03    0.21555E-02   -0.15205E-03  3048   0.599E-02    0.685E-01
DAV:  32    -0.400242821234E+03    0.17005E-02   -0.14447E-03  3128   0.747E-02    0.586E-01
DAV:  33    -0.400242273309E+03    0.54792E-03   -0.25955E-04  2824   0.316E-02    0.533E-01
DAV:  34    -0.400240815698E+03    0.14576E-02   -0.12575E-03  2992   0.509E-02    0.400E-01
DAV:  35    -0.400240131317E+03    0.68438E-03   -0.63973E-04  2792   0.500E-02    0.289E-01
DAV:  36    -0.400239792675E+03    0.33864E-03   -0.34711E-04  3128   0.256E-02    0.222E-01
DAV:  37    -0.400239523239E+03    0.26944E-03   -0.28553E-04  2872   0.262E-02    0.139E-01
DAV:  38    -0.400239387516E+03    0.13572E-03   -0.24819E-04  3064   0.219E-02    0.836E-02
DAV:  39    -0.400239349403E+03    0.38113E-04   -0.70892E-05  2816   0.143E-02    0.471E-02
DAV:  40    -0.400239337756E+03    0.11647E-04   -0.20540E-05  1928   0.833E-03    0.359E-02
DAV:  41    -0.400239335651E+03    0.21049E-05   -0.11437E-05  1664   0.755E-03
   1 F= -.40023934E+03 E0= -.40018486E+03  d E =-.108952E+00
 running on   16 total cores
 distrk:  each k-point on    8 cores,    2 groups
 distr:  one band on    4 cores,    2 groups
 using from now: INCAR     
 vasp.5.4.4.18Apr17-6-g9f103f2a35 (build Nov 27 2019 20:08:17) complex          
  
 POSCAR found type information on POSCAR  Ti
 POSCAR found :  1 types and      36 ions
 scaLAPACK will be used

 ----------------------------------------------------------------------------- 
|                                                                             |
|           W    W    AA    RRRRR   N    N  II  N    N   GGGG   !!!           |
|           W    W   A  A   R    R  NN   N  II  NN   N  G    G  !!!           |
|           W    W  A    A  R    R  N N  N  II  N N  N  G       !!!           |
|           W WW W  AAAAAA  RRRRR   N  N N  II  N  N N  G  GGG   !            |
|           WW  WW  A    A  R   R   N   NN  II  N   NN  G    G                |
|           W    W  A    A  R    R  N    N  II  N    N   GGGG   !!!           |
|                                                                             |
|      You have enabled k-point parallelism (KPAR>1).                         |
|      This developmental code was originally  written by Paul Kent at ORNL,  |
|      and carefully double checked in Vienna.                                |
|      GW as well as linear response parallelism added by Martijn Marsman     |
|      and Georg Kresse.                                                      |
|      Carefully verify results versus KPAR=1.                                |
|      Report problems to Paul Kent and Vienna.                               |
|                                                                             |
 ----------------------------------------------------------------------------- 

 LDA part: xc-table for Pade appr. of Perdew
 POSCAR found type information on POSCAR  Ti
 POSCAR found :  1 types and      36 ions
 POSCAR, INCAR and KPOINTS ok, starting setup
 FFT: planning ...
 WAVECAR not read
 WARNING: random wavefunctions but no delay for mixing, default for NELMDL
 entering main loop
       N       E                     dE             d eps       ncg     rms          rms(c)
DAV:   1     0.727139168801E+03    0.72714E+03   -0.40615E+04  1288   0.107E+03
DAV:   2    -0.185846386269E+03   -0.91299E+03   -0.87751E+03  1288   0.243E+02
DAV:   3    -0.320669697241E+03   -0.13482E+03   -0.12659E+03  1952   0.861E+01
DAV:   4    -0.330599820113E+03   -0.99301E+01   -0.92733E+01  1896   0.283E+01
DAV:   5    -0.331135246720E+03   -0.53543E+00   -0.52390E+00  2048   0.583E+00    0.781E+01
DAV:   6    -0.499860379873E+03   -0.16873E+03   -0.28715E+03  2400   0.988E+01    0.996E+01
DAV:   7    -0.286241761495E+03    0.21362E+03   -0.39123E+03  2220   0.176E+02    0.340E+01
DAV:   8    -0.285148016615E+03    0.10937E+01   -0.57368E+02  1884   0.780E+01    0.384E+01
DAV:   9    -0.268574335486E+03    0.16574E+02   -0.87959E+01  2028   0.306E+01    0.289E+01
DAV:  10    -0.266777647542E+03    0.17967E+01   -0.63443E+00  2080   0.666E+00    0.272E+01
DAV:  11    -0.265313470100E+03    0.14642E+01   -0.99511E-01  2152   0.272E+00    0.251E+01
DAV:  12    -0.262326655442E+03    0.29868E+01   -0.69852E+00  1932   0.802E+00    0.209E+01
DAV:  13    -0.256320302894E+03    0.60064E+01   -0.28002E+01  2112   0.149E+01    0.702E+00
DAV:  14    -0.256051391543E+03    0.26891E+00   -0.27238E+00  2096   0.415E+00    0.473E+00
DAV:  15    -0.256155692231E+03   -0.10430E+00   -0.64535E-01  2040   0.225E+00    0.503E+00
DAV:  16    -0.255951252385E+03    0.20444E+00   -0.25538E+00  2088   0.392E+00    0.337E+00
DAV:  17    -0.255791179786E+03    0.16007E+00   -0.72147E-01  2080   0.266E+00    0.119E+00
DAV:  18    -0.255787056098E+03    0.41237E-02   -0.18061E-01  2008   0.127E+00    0.796E-01
DAV:  19    -0.255818980349E+03   -0.31924E-01   -0.27606E-01  1944   0.154E+00    0.152E+00
DAV:  20    -0.255803003005E+03    0.15977E-01   -0.19107E-01  1992   0.114E+00    0.746E-01
DAV:  21    -0.255794013707E+03    0.89893E-02   -0.32185E-02  1904   0.697E-01    0.197E-01
DAV:  22    -0.255795186443E+03   -0.11727E-02   -0.68777E-03  2144   0.181E-01    0.182E-01
DAV:  23    -0.255795426990E+03   -0.24055E-03   -0.24322E-03  1944   0.165E-01    0.733E-02
DAV:  24    -0.255795618936E+03   -0.19195E-03   -0.10136E-03  2064   0.870E-02    0.831E-02
DAV:  25    -0.255795891927E+03   -0.27299E-03   -0.10388E-03  2048   0.870E-02    0.596E-02
DAV:  26    -0.255796211666E+03   -0.31974E-03   -0.31495E-04  1936   0.525E-02    0.270E-02
DAV:  27    -0.255796447321E+03   -0.23566E-03   -0.12958E-04  2032   0.252E-02    0.316E-02
DAV:  28    -0.255796607923E+03   -0.16060E-03   -0.15311E-04  1944   0.343E-02    0.221E-02
DAV:  29    -0.255796701793E+03   -0.93870E-04   -0.44982E-05  1640   0.189E-02    0.931E-03
DAV:  30    -0.255796722523E+03   -0.20730E-04   -0.26096E-06   896   0.540E-03    0.808E-03
DAV:  31    -0.255796729363E+03   -0.68400E-05   -0.31313E-06   896   0.505E-03    0.570E-03
DAV:  32    -0.255796729479E+03   -0.11568E-06   -0.10820E-06   896   0.396E-03
   1 F= -.25579673E+03 E0= -.25572795E+03  d E =-.137555E+00
 running on   16 total cores
 distrk:  each k-point on    8 cores,    2 groups
 distr:  one band on    4 cores,    2 groups
 using from now: INCAR     
 vasp.5.4.4.18Apr17-6-g9f103f2a35 (build Nov 27 2019 20:08:17) complex          
  
 POSCAR found type information on POSCAR  Ti
 POSCAR found :  1 types and      90 ions
 scaLAPACK will be used

 ----------------------------------------------------------------------------- 
|                                                                             |
|           W    W    AA    RRRRR   N    N  II  N    N   GGGG   !!!           |
|           W    W   A  A   R    R  NN   N  II  NN   N  G    G  !!!           |
|           W    W  A    A  R    R  N N  N  II  N N  N  G       !!!           |
|           W WW W  AAAAAA  RRRRR   N  N N  II  N  N N  G  GGG   !            |
|           WW  WW  A    A  R   R   N   NN  II  N   NN  G    G                |
|           W    W  A    A  R    R  N    N  II  N    N   GGGG   !!!           |
|                                                                             |
|      You have enabled k-point parallelism (KPAR>1).                         |
|      This developmental code was originally  written by Paul Kent at ORNL,  |
|      and carefully double checked in Vienna.                                |
|      GW as well as linear response parallelism added by Martijn Marsman     |
|      and Georg Kresse.                                                      |
|      Carefully verify results versus KPAR=1.                                |
|      Report problems to Paul Kent and Vienna.                               |
|                                                                             |
 ----------------------------------------------------------------------------- 

 LDA part: xc-table for Pade appr. of Perdew
 POSCAR found type information on POSCAR  Ti
 POSCAR found :  1 types and      90 ions
 POSCAR, INCAR and KPOINTS ok, starting setup
 FFT: planning ...
 WAVECAR not read
 WARNING: random wavefunctions but no delay for mixing, default for NELMDL
 entering main loop
       N       E                     dE             d eps       ncg     rms          rms(c)
DAV:   1     0.156732855740E+04    0.15673E+04   -0.10350E+05  3164   0.125E+03
DAV:   2    -0.462811565471E+03   -0.20301E+04   -0.19733E+04  3164   0.279E+02
DAV:   3    -0.764500045181E+03   -0.30169E+03   -0.28196E+03  4648   0.976E+01
DAV:   4    -0.789121204581E+03   -0.24621E+02   -0.23188E+02  4664   0.289E+01
DAV:   5    -0.790100501225E+03   -0.97930E+00   -0.95376E+00  4552   0.459E+00    0.119E+02
DAV:   6    -0.198830910047E+04   -0.11982E+04   -0.11535E+04  6260   0.178E+02    0.156E+02
DAV:   7    -0.103132813528E+04    0.95698E+03   -0.18272E+04  5812   0.180E+02    0.954E+01
DAV:   8    -0.691413945502E+03    0.33991E+03   -0.33988E+03  5058   0.142E+02    0.639E+01
DAV:   9    -0.765557244559E+03   -0.74143E+02   -0.13774E+03  5658   0.842E+01    0.594E+01
DAV:  10    -0.722207936724E+03    0.43349E+02   -0.50524E+02  5600   0.571E+01    0.511E+01
DAV:  11    -0.702091883964E+03    0.20116E+02   -0.13264E+02  5160   0.238E+01    0.410E+01
DAV:  12    -0.701386754820E+03    0.70513E+00   -0.12335E+01  4912   0.674E+00    0.404E+01
DAV:  13    -0.699543044204E+03    0.18437E+01   -0.14625E+00  4856   0.239E+00    0.381E+01
DAV:  14    -0.696164447012E+03    0.33786E+01   -0.37495E+00  4880   0.416E+00    0.344E+01
DAV:  15    -0.688971208206E+03    0.71932E+01   -0.98636E+00  4488   0.756E+00    0.244E+01
DAV:  16    -0.684542198342E+03    0.44290E+01   -0.75807E+00  4656   0.656E+00    0.178E+01
DAV:  17    -0.682835893441E+03    0.17063E+01   -0.55914E+00  4936   0.562E+00    0.149E+01
DAV:  18    -0.680366737618E+03    0.24692E+01   -0.46867E+00  4232   0.546E+00    0.946E+00
DAV:  19    -0.679255845582E+03    0.11109E+01   -0.43717E+00  4384   0.508E+00    0.589E+00
DAV:  20    -0.678801581384E+03    0.45426E+00   -0.26880E+00  4304   0.403E+00    0.375E+00
DAV:  21    -0.678770913785E+03    0.30668E-01   -0.77199E-01  4776   0.199E+00    0.335E+00
DAV:  22    -0.678729871606E+03    0.41042E-01   -0.32950E-01  4664   0.127E+00    0.244E+00
DAV:  23    -0.678726705526E+03    0.31661E-02   -0.16281E-01  4784   0.903E-01    0.192E+00
DAV:  24    -0.678715495604E+03    0.11210E-01   -0.16176E-01  4744   0.907E-01    0.113E+00
DAV:  25    -0.678713184230E+03    0.23114E-02   -0.80170E-02  4720   0.634E-01    0.911E-01
DAV:  26    -0.678708817620E+03    0.43666E-02   -0.23300E-02  4752   0.347E-01    0.752E-01
DAV:  27    -0.678706587562E+03    0.22301E-02   -0.13785E-02  4848   0.253E-01    0.648E-01
DAV:  28    -0.678705862954E+03    0.72461E-03   -0.51794E-03  4776   0.148E-01    0.537E-01
DAV:  29    -0.678703051090E+03    0.28119E-02   -0.71383E-03  4000   0.210E-01    0.194E-01
DAV:  30    -0.678702849427E+03    0.20166E-03   -0.13503E-03  4784   0.834E-02    0.106E-01
DAV:  31    -0.678702767049E+03    0.82377E-04   -0.49209E-04  4848   0.469E-02    0.645E-02
DAV:  32    -0.678702778115E+03   -0.11066E-04   -0.33231E-04  4712   0.409E-02    0.573E-02
DAV:  33    -0.678702721335E+03    0.56781E-04   -0.26245E-04  4928   0.351E-02    0.320E-02
DAV:  34    -0.678702707761E+03    0.13574E-04   -0.83367E-05  4640   0.213E-02    0.167E-02
DAV:  35    -0.678702705943E+03    0.18177E-05   -0.13763E-05  2560   0.107E-02
   1 F= -.67870271E+03 E0= -.67860857E+03  d E =-.188272E+00
Distance=1.650
 running on   16 total cores
 distrk:  each k-point on    8 cores,    2 groups
 distr:  one band on    4 cores,    2 groups
 using from now: INCAR     
 vasp.5.4.4.18Apr17-6-g9f103f2a35 (build Nov 27 2019 20:08:17) complex          
  
 POSCAR found type information on POSCAR  Ti
 POSCAR found :  1 types and      54 ions
 scaLAPACK will be used

 ----------------------------------------------------------------------------- 
|                                                                             |
|           W    W    AA    RRRRR   N    N  II  N    N   GGGG   !!!           |
|           W    W   A  A   R    R  NN   N  II  NN   N  G    G  !!!           |
|           W    W  A    A  R    R  N N  N  II  N N  N  G       !!!           |
|           W WW W  AAAAAA  RRRRR   N  N N  II  N  N N  G  GGG   !            |
|           WW  WW  A    A  R   R   N   NN  II  N   NN  G    G                |
|           W    W  A    A  R    R  N    N  II  N    N   GGGG   !!!           |
|                                                                             |
|      You have enabled k-point parallelism (KPAR>1).                         |
|      This developmental code was originally  written by Paul Kent at ORNL,  |
|      and carefully double checked in Vienna.                                |
|      GW as well as linear response parallelism added by Martijn Marsman     |
|      and Georg Kresse.                                                      |
|      Carefully verify results versus KPAR=1.                                |
|      Report problems to Paul Kent and Vienna.                               |
|                                                                             |
 ----------------------------------------------------------------------------- 

 LDA part: xc-table for Pade appr. of Perdew
 POSCAR found type information on POSCAR  Ti
 POSCAR found :  1 types and      54 ions
 POSCAR, INCAR and KPOINTS ok, starting setup
 FFT: planning ...
 WAVECAR not read
 WARNING: random wavefunctions but no delay for mixing, default for NELMDL
 entering main loop
       N       E                     dE             d eps       ncg     rms          rms(c)
DAV:   1     0.994216828257E+03    0.99422E+03   -0.62033E+04  1904   0.116E+03
DAV:   2    -0.279449871503E+03   -0.12737E+04   -0.12345E+04  1904   0.256E+02
DAV:   3    -0.468386066767E+03   -0.18894E+03   -0.17969E+03  2984   0.883E+01
DAV:   4    -0.485142195770E+03   -0.16756E+02   -0.15858E+02  3048   0.275E+01
DAV:   5    -0.486214789518E+03   -0.10726E+01   -0.10143E+01  3072   0.559E+00    0.858E+01
DAV:   6    -0.925346342989E+03   -0.43913E+03   -0.53581E+03  3784   0.108E+02    0.127E+02
DAV:   7    -0.436777830630E+03    0.48857E+03   -0.70165E+03  3432   0.158E+02    0.480E+01
DAV:   8    -0.407812276189E+03    0.28966E+02   -0.10358E+03  3128   0.909E+01    0.325E+01
DAV:   9    -0.415532862761E+03   -0.77206E+01   -0.19452E+02  3152   0.271E+01    0.292E+01
DAV:  10    -0.417670238235E+03   -0.21374E+01   -0.18539E+01  3176   0.772E+00    0.310E+01
DAV:  11    -0.417617439391E+03    0.52799E-01   -0.15084E+00  3120   0.155E+00    0.309E+01
DAV:  12    -0.417349903794E+03    0.26754E+00   -0.32394E+00  3032   0.444E+00    0.308E+01
DAV:  13    -0.414386556751E+03    0.29633E+01   -0.10352E+00  2376   0.318E+00    0.306E+01
DAV:  14    -0.411013374850E+03    0.33732E+01   -0.38947E+01  3000   0.162E+01    0.297E+01
DAV:  15    -0.410367394921E+03    0.64598E+00   -0.15915E+00  2984   0.334E+00    0.291E+01
DAV:  16    -0.410170188974E+03    0.19721E+00   -0.15700E-01  3088   0.877E-01    0.286E+01
DAV:  17    -0.405668580449E+03    0.45016E+01   -0.41521E+00  3056   0.433E+00    0.190E+01
DAV:  18    -0.405019807947E+03    0.64877E+00   -0.61367E-01  2432   0.257E+00    0.177E+01
DAV:  19    -0.404828632665E+03    0.19118E+00   -0.55623E-02  3320   0.359E-01    0.175E+01
DAV:  20    -0.403361403056E+03    0.14672E+01   -0.51756E-01  3048   0.162E+00    0.145E+01
DAV:  21    -0.400689388395E+03    0.26720E+01   -0.48368E+00  3048   0.439E+00    0.636E+00
DAV:  22    -0.400758392059E+03   -0.69004E-01   -0.34976E-01  2520   0.180E+00    0.635E+00
DAV:  23    -0.400709222464E+03    0.49170E-01   -0.55953E-02  3272   0.434E-01    0.582E+00
DAV:  24    -0.400396382857E+03    0.31284E+00   -0.60605E-01  3016   0.149E+00    0.333E+00
DAV:  25    -0.400313544374E+03    0.82838E-01   -0.23333E-01  3168   0.113E+00    0.260E+00
DAV:  26    -0.400264393178E+03    0.49151E-01   -0.11947E-01  2624   0.947E-01    0.231E+00
DAV:  27    -0.400257116820E+03    0.72764E-02   -0.17473E-02  3104   0.275E-01    0.218E+00
DAV:  28    -0.400258973530E+03   -0.18567E-02   -0.19879E-02  3064   0.286E-01    0.204E+00
DAV:  29    -0.400254077838E+03    0.48957E-02   -0.59151E-03  3016   0.193E-01    0.192E+00
DAV:  30    -0.400255187697E+03   -0.11099E-02   -0.80701E-03  2864   0.144E-01    0.176E+00
DAV:  31    -0.400255158424E+03    0.29273E-04   -0.34380E-03  2992   0.951E-02    0.160E+00
DAV:  32    -0.400254935077E+03    0.22335E-03   -0.15473E-03  2960   0.726E-02    0.140E+00
DAV:  33    -0.400253470211E+03    0.14649E-02   -0.88415E-04  2624   0.757E-02    0.122E+00
DAV:  34    -0.400248975339E+03    0.44949E-02   -0.18556E-03  3056   0.692E-02    0.992E-01
DAV:  35    -0.400244303478E+03    0.46719E-02   -0.26548E-03  2768   0.101E-01    0.719E-01
DAV:  36    -0.400241291117E+03    0.30124E-02   -0.30135E-03  3072   0.922E-02    0.514E-01
DAV:  37    -0.400240095744E+03    0.11954E-02   -0.10376E-03  3088   0.575E-02    0.382E-01
DAV:  38    -0.400239372899E+03    0.72284E-03   -0.73065E-04  3112   0.449E-02    0.254E-01
DAV:  39    -0.400239119568E+03    0.25333E-03   -0.28917E-04  2856   0.360E-02    0.160E-01
DAV:  40    -0.400238977595E+03    0.14197E-03   -0.23326E-04  3096   0.243E-02    0.785E-02
DAV:  41    -0.400238954483E+03    0.23112E-04   -0.63016E-05  2568   0.174E-02    0.326E-02
DAV:  42    -0.400238946181E+03    0.83022E-05   -0.26882E-05  2096   0.872E-03    0.113E-02
DAV:  43    -0.400238946130E+03    0.50877E-07   -0.63226E-06  1456   0.542E-03
   1 F= -.40023895E+03 E0= -.40018444E+03  d E =-.109021E+00
 running on   16 total cores
 distrk:  each k-point on    8 cores,    2 groups
 distr:  one band on    4 cores,    2 groups
 using from now: INCAR     
 vasp.5.4.4.18Apr17-6-g9f103f2a35 (build Nov 27 2019 20:08:17) complex          
  
 POSCAR found type information on POSCAR  Ti
 POSCAR found :  1 types and      36 ions
 scaLAPACK will be used

 ----------------------------------------------------------------------------- 
|                                                                             |
|           W    W    AA    RRRRR   N    N  II  N    N   GGGG   !!!           |
|           W    W   A  A   R    R  NN   N  II  NN   N  G    G  !!!           |
|           W    W  A    A  R    R  N N  N  II  N N  N  G       !!!           |
|           W WW W  AAAAAA  RRRRR   N  N N  II  N  N N  G  GGG   !            |
|           WW  WW  A    A  R   R   N   NN  II  N   NN  G    G                |
|           W    W  A    A  R    R  N    N  II  N    N   GGGG   !!!           |
|                                                                             |
|      You have enabled k-point parallelism (KPAR>1).                         |
|      This developmental code was originally  written by Paul Kent at ORNL,  |
|      and carefully double checked in Vienna.                                |
|      GW as well as linear response parallelism added by Martijn Marsman     |
|      and Georg Kresse.                                                      |
|      Carefully verify results versus KPAR=1.                                |
|      Report problems to Paul Kent and Vienna.                               |
|                                                                             |
 ----------------------------------------------------------------------------- 

 LDA part: xc-table for Pade appr. of Perdew
 POSCAR found type information on POSCAR  Ti
 POSCAR found :  1 types and      36 ions
 POSCAR, INCAR and KPOINTS ok, starting setup
 FFT: planning ...
 WAVECAR not read
 WARNING: random wavefunctions but no delay for mixing, default for NELMDL
 entering main loop
       N       E                     dE             d eps       ncg     rms          rms(c)
DAV:   1     0.732237693116E+03    0.73224E+03   -0.40617E+04  1288   0.107E+03
DAV:   2    -0.184802437269E+03   -0.91704E+03   -0.88127E+03  1288   0.243E+02
DAV:   3    -0.320307760116E+03   -0.13551E+03   -0.12711E+03  1984   0.864E+01
DAV:   4    -0.330640238499E+03   -0.10332E+02   -0.96325E+01  1936   0.283E+01
DAV:   5    -0.331139278209E+03   -0.49904E+00   -0.48929E+00  2016   0.571E+00    0.782E+01
DAV:   6    -0.500570000735E+03   -0.16943E+03   -0.28867E+03  2432   0.989E+01    0.996E+01
DAV:   7    -0.286201668165E+03    0.21437E+03   -0.39167E+03  2228   0.176E+02    0.340E+01
DAV:   8    -0.285624420649E+03    0.57725E+00   -0.57702E+02  1896   0.781E+01    0.387E+01
DAV:   9    -0.268636649067E+03    0.16988E+02   -0.89365E+01  2036   0.312E+01    0.290E+01
DAV:  10    -0.266766431073E+03    0.18702E+01   -0.64778E+00  2080   0.683E+00    0.272E+01
DAV:  11    -0.265376441330E+03    0.13900E+01   -0.98586E-01  2172   0.262E+00    0.252E+01
DAV:  12    -0.262007619278E+03    0.33688E+01   -0.10359E+01  1920   0.972E+00    0.202E+01
DAV:  13    -0.256352378509E+03    0.56552E+01   -0.26631E+01  2112   0.140E+01    0.709E+00
DAV:  14    -0.256067479796E+03    0.28490E+00   -0.26523E+00  2072   0.430E+00    0.480E+00
DAV:  15    -0.256170866055E+03   -0.10339E+00   -0.65099E-01  2024   0.224E+00    0.509E+00
DAV:  16    -0.255930394179E+03    0.24047E+00   -0.24672E+00  2072   0.393E+00    0.318E+00
DAV:  17    -0.255792682291E+03    0.13771E+00   -0.55938E-01  2024   0.234E+00    0.125E+00
DAV:  18    -0.255788662320E+03    0.40200E-02   -0.24501E-01  2056   0.151E+00    0.878E-01
DAV:  19    -0.255831524946E+03   -0.42863E-01   -0.44342E-01  1956   0.188E+00    0.182E+00
DAV:  20    -0.255803835179E+03    0.27690E-01   -0.18269E-01  1976   0.115E+00    0.758E-01
DAV:  21    -0.255794390389E+03    0.94448E-02   -0.42799E-02  1844   0.767E-01    0.175E-01
DAV:  22    -0.255795401625E+03   -0.10112E-02   -0.48070E-03  2176   0.172E-01    0.177E-01
DAV:  23    -0.255796262059E+03   -0.86043E-03   -0.16849E-03  1836   0.132E-01    0.131E-01
DAV:  24    -0.255796386405E+03   -0.12435E-03   -0.29546E-03  2016   0.153E-01    0.106E-01
DAV:  25    -0.255796448114E+03   -0.61708E-04   -0.90173E-04  2000   0.915E-02    0.326E-02
DAV:  26    -0.255796616698E+03   -0.16858E-03   -0.97487E-05  1856   0.271E-02    0.280E-02
DAV:  27    -0.255796845294E+03   -0.22860E-03   -0.83661E-05  1904   0.183E-02    0.120E-02
DAV:  28    -0.255796943469E+03   -0.98175E-04   -0.31251E-05  1584   0.160E-02    0.701E-03
DAV:  29    -0.255797100295E+03   -0.15683E-03   -0.10216E-05  1168   0.790E-03    0.802E-03
DAV:  30    -0.255797116949E+03   -0.16654E-04   -0.26600E-06   896   0.615E-03    0.401E-03
DAV:  31    -0.255797124423E+03   -0.74741E-05   -0.17088E-06   896   0.256E-03    0.256E-03
DAV:  32    -0.255797134274E+03   -0.98510E-05   -0.17007E-06   880   0.402E-03    0.278E-03
DAV:  33    -0.255797136295E+03   -0.20215E-05   -0.72767E-07   856   0.294E-03
   1 F= -.25579714E+03 E0= -.25572836E+03  d E =-.137554E+00
 running on   16 total cores
 distrk:  each k-point on    8 cores,    2 groups
 distr:  one band on    4 cores,    2 groups
 using from now: INCAR     
 vasp.5.4.4.18Apr17-6-g9f103f2a35 (build Nov 27 2019 20:08:17) complex          
  
 POSCAR found type information on POSCAR  Ti
 POSCAR found :  1 types and      90 ions
 scaLAPACK will be used

 ----------------------------------------------------------------------------- 
|                                                                             |
|           W    W    AA    RRRRR   N    N  II  N    N   GGGG   !!!           |
|           W    W   A  A   R    R  NN   N  II  NN   N  G    G  !!!           |
|           W    W  A    A  R    R  N N  N  II  N N  N  G       !!!           |
|           W WW W  AAAAAA  RRRRR   N  N N  II  N  N N  G  GGG   !            |
|           WW  WW  A    A  R   R   N   NN  II  N   NN  G    G                |
|           W    W  A    A  R    R  N    N  II  N    N   GGGG   !!!           |
|                                                                             |
|      You have enabled k-point parallelism (KPAR>1).                         |
|      This developmental code was originally  written by Paul Kent at ORNL,  |
|      and carefully double checked in Vienna.                                |
|      GW as well as linear response parallelism added by Martijn Marsman     |
|      and Georg Kresse.                                                      |
|      Carefully verify results versus KPAR=1.                                |
|      Report problems to Paul Kent and Vienna.                               |
|                                                                             |
 ----------------------------------------------------------------------------- 

 LDA part: xc-table for Pade appr. of Perdew
 POSCAR found type information on POSCAR  Ti
 POSCAR found :  1 types and      90 ions
 POSCAR, INCAR and KPOINTS ok, starting setup
 FFT: planning ...
 WAVECAR not read
 WARNING: random wavefunctions but no delay for mixing, default for NELMDL
 entering main loop
       N       E                     dE             d eps       ncg     rms          rms(c)
DAV:   1     0.156067301936E+04    0.15607E+04   -0.10351E+05  3164   0.124E+03
DAV:   2    -0.463217023261E+03   -0.20239E+04   -0.19678E+04  3164   0.278E+02
DAV:   3    -0.763955996484E+03   -0.30074E+03   -0.28091E+03  4672   0.970E+01
DAV:   4    -0.788763320500E+03   -0.24807E+02   -0.23376E+02  4680   0.288E+01
DAV:   5    -0.789753122258E+03   -0.98980E+00   -0.96285E+00  4568   0.454E+00    0.118E+02
DAV:   6    -0.192434981599E+04   -0.11346E+04   -0.10890E+04  6252   0.172E+02    0.150E+02
DAV:   7    -0.104879987986E+04    0.87555E+03   -0.18027E+04  5796   0.178E+02    0.947E+01
DAV:   8    -0.682106872794E+03    0.36669E+03   -0.32536E+03  5042   0.137E+02    0.613E+01
DAV:   9    -0.743936229233E+03   -0.61829E+02   -0.12531E+03  5592   0.754E+01    0.554E+01
DAV:  10    -0.725598873359E+03    0.18337E+02   -0.38211E+02  5614   0.504E+01    0.509E+01
DAV:  11    -0.702119755632E+03    0.23479E+02   -0.11540E+02  5160   0.243E+01    0.399E+01
DAV:  12    -0.701271318400E+03    0.84844E+00   -0.11011E+01  4816   0.643E+00    0.388E+01
DAV:  13    -0.699039490117E+03    0.22318E+01   -0.18214E+00  4832   0.278E+00    0.361E+01
DAV:  14    -0.695420515789E+03    0.36190E+01   -0.30321E+00  4864   0.392E+00    0.321E+01
DAV:  15    -0.690261322802E+03    0.51592E+01   -0.10732E+01  4968   0.759E+00    0.249E+01
DAV:  16    -0.685791162031E+03    0.44702E+01   -0.48437E+00  4168   0.582E+00    0.180E+01
DAV:  17    -0.684706678611E+03    0.10845E+01   -0.55315E+00  4920   0.528E+00    0.161E+01
DAV:  18    -0.681852181076E+03    0.28545E+01   -0.43932E+00  3976   0.534E+00    0.104E+01
DAV:  19    -0.680767310501E+03    0.10849E+01   -0.33860E+00  4640   0.438E+00    0.680E+00
DAV:  20    -0.680090985641E+03    0.67632E+00   -0.26010E+00  4272   0.387E+00    0.305E+00
DAV:  21    -0.680051625405E+03    0.39360E-01   -0.69316E-01  4744   0.184E+00    0.250E+00
DAV:  22    -0.680022308680E+03    0.29317E-01   -0.26886E-01  4752   0.114E+00    0.196E+00
DAV:  23    -0.680011319048E+03    0.10990E-01   -0.13893E-01  4760   0.826E-01    0.162E+00
DAV:  24    -0.680000533769E+03    0.10785E-01   -0.10693E-01  4760   0.738E-01    0.108E+00
DAV:  25    -0.679994437969E+03    0.60958E-02   -0.75931E-02  4808   0.615E-01    0.682E-01
DAV:  26    -0.679992271557E+03    0.21664E-02   -0.27060E-02  4784   0.364E-01    0.453E-01
DAV:  27    -0.679990370700E+03    0.19009E-02   -0.12748E-02  4672   0.264E-01    0.252E-01
DAV:  28    -0.679990130202E+03    0.24050E-03   -0.26740E-03  4960   0.113E-01    0.185E-01
DAV:  29    -0.679989796450E+03    0.33375E-03   -0.18425E-03  4976   0.964E-02    0.963E-02
DAV:  30    -0.679989713886E+03    0.82563E-04   -0.94227E-04  4912   0.654E-02    0.600E-02
DAV:  31    -0.679989690106E+03    0.23780E-04   -0.28300E-04  4840   0.357E-02    0.422E-02
DAV:  32    -0.679989676145E+03    0.13961E-04   -0.11693E-04  4736   0.246E-02    0.280E-02
DAV:  33    -0.679989676230E+03   -0.85194E-07   -0.56236E-05  4248   0.167E-02    0.244E-02
DAV:  34    -0.679989675163E+03    0.10677E-05   -0.47099E-05  4072   0.149E-02
   1 F= -.67998968E+03 E0= -.67989510E+03  d E =-.189157E+00
Distance=1.700
 running on   16 total cores
 distrk:  each k-point on    8 cores,    2 groups
 distr:  one band on    4 cores,    2 groups
 using from now: INCAR     
 vasp.5.4.4.18Apr17-6-g9f103f2a35 (build Nov 27 2019 20:08:17) complex          
  
 POSCAR found type information on POSCAR  Ti
 POSCAR found :  1 types and      54 ions
 scaLAPACK will be used

 ----------------------------------------------------------------------------- 
|                                                                             |
|           W    W    AA    RRRRR   N    N  II  N    N   GGGG   !!!           |
|           W    W   A  A   R    R  NN   N  II  NN   N  G    G  !!!           |
|           W    W  A    A  R    R  N N  N  II  N N  N  G       !!!           |
|           W WW W  AAAAAA  RRRRR   N  N N  II  N  N N  G  GGG   !            |
|           WW  WW  A    A  R   R   N   NN  II  N   NN  G    G                |
|           W    W  A    A  R    R  N    N  II  N    N   GGGG   !!!           |
|                                                                             |
|      You have enabled k-point parallelism (KPAR>1).                         |
|      This developmental code was originally  written by Paul Kent at ORNL,  |
|      and carefully double checked in Vienna.                                |
|      GW as well as linear response parallelism added by Martijn Marsman     |
|      and Georg Kresse.                                                      |
|      Carefully verify results versus KPAR=1.                                |
|      Report problems to Paul Kent and Vienna.                               |
|                                                                             |
 ----------------------------------------------------------------------------- 

 LDA part: xc-table for Pade appr. of Perdew
 POSCAR found type information on POSCAR  Ti
 POSCAR found :  1 types and      54 ions
 POSCAR, INCAR and KPOINTS ok, starting setup
 FFT: planning ...
 WAVECAR not read
 WARNING: random wavefunctions but no delay for mixing, default for NELMDL
 entering main loop
       N       E                     dE             d eps       ncg     rms          rms(c)
DAV:   1     0.994816726838E+03    0.99482E+03   -0.62090E+04  1904   0.116E+03
DAV:   2    -0.279126970995E+03   -0.12739E+04   -0.12350E+04  1904   0.256E+02
DAV:   3    -0.468278785448E+03   -0.18915E+03   -0.17968E+03  3008   0.881E+01
DAV:   4    -0.485147087712E+03   -0.16868E+02   -0.15995E+02  3072   0.275E+01
DAV:   5    -0.486214736394E+03   -0.10676E+01   -0.10078E+01  3056   0.549E+00    0.858E+01
DAV:   6    -0.924863482162E+03   -0.43865E+03   -0.53633E+03  3792   0.108E+02    0.128E+02
DAV:   7    -0.437622630770E+03    0.48724E+03   -0.70724E+03  3432   0.158E+02    0.481E+01
DAV:   8    -0.408068287525E+03    0.29554E+02   -0.10390E+03  3112   0.914E+01    0.326E+01
DAV:   9    -0.415621943018E+03   -0.75537E+01   -0.19519E+02  3176   0.273E+01    0.293E+01
DAV:  10    -0.417634612693E+03   -0.20127E+01   -0.18744E+01  3160   0.772E+00    0.310E+01
DAV:  11    -0.417628696984E+03    0.59157E-02   -0.15927E+00  3120   0.162E+00    0.309E+01
DAV:  12    -0.418323900153E+03   -0.69520E+00   -0.29781E+00  3024   0.423E+00    0.318E+01
DAV:  13    -0.418250404568E+03    0.73496E-01   -0.38449E-01  2888   0.142E+00    0.332E+01
DAV:  14    -0.436460541509E+03   -0.18210E+02   -0.78244E+01  3056   0.192E+01    0.502E+01
DAV:  15    -0.433373719484E+03    0.30868E+01   -0.78987E+00  2936   0.689E+00    0.480E+01
DAV:  16    -0.434037912815E+03   -0.66419E+00   -0.67208E-01  2928   0.177E+00    0.481E+01
DAV:  17    -0.428874112820E+03    0.51638E+01   -0.26874E+00  2952   0.398E+00    0.414E+01
DAV:  18    -0.428136764107E+03    0.73735E+00   -0.82099E-01  2944   0.252E+00    0.399E+01
DAV:  19    -0.421469450580E+03    0.66673E+01   -0.21721E+00  2848   0.317E+00    0.361E+01
DAV:  20    -0.420524244971E+03    0.94521E+00   -0.31970E-01  2608   0.170E+00    0.349E+01
DAV:  21    -0.416676734063E+03    0.38475E+01   -0.74305E-01  3072   0.213E+00    0.310E+01
DAV:  22    -0.415849957229E+03    0.82678E+00   -0.18421E-01  2472   0.127E+00    0.298E+01
DAV:  23    -0.410746365194E+03    0.51036E+01   -0.26355E+00  3064   0.339E+00    0.254E+01
DAV:  24    -0.410481264098E+03    0.26510E+00   -0.22695E-01  2848   0.140E+00    0.248E+01
DAV:  25    -0.408630924990E+03    0.18503E+01   -0.40408E-01  3016   0.127E+00    0.228E+01
DAV:  26    -0.407008897888E+03    0.16220E+01   -0.44296E-01  3080   0.127E+00    0.206E+01
DAV:  27    -0.406099429174E+03    0.90947E+00   -0.15501E-01  3040   0.836E-01    0.193E+01
DAV:  28    -0.402995266329E+03    0.31042E+01   -0.20520E+00  3128   0.278E+00    0.137E+01
DAV:  29    -0.402399346902E+03    0.59592E+00   -0.34695E-01  2696   0.151E+00    0.119E+01
DAV:  30    -0.401100128905E+03    0.12992E+01   -0.10554E+00  2952   0.211E+00    0.785E+00
DAV:  31    -0.401032389336E+03    0.67740E-01   -0.14331E-01  2704   0.103E+00    0.721E+00
DAV:  32    -0.400691297409E+03    0.34109E+00   -0.25051E-01  3064   0.950E-01    0.546E+00
DAV:  33    -0.400318178372E+03    0.37312E+00   -0.66391E-01  3072   0.147E+00    0.281E+00
DAV:  34    -0.400327434987E+03   -0.92566E-02   -0.48212E-02  2512   0.602E-01    0.269E+00
DAV:  35    -0.400278425915E+03    0.49009E-01   -0.49312E-02  2912   0.338E-01    0.201E+00
DAV:  36    -0.400240933007E+03    0.37493E-01   -0.98839E-02  3064   0.610E-01    0.785E-01
DAV:  37    -0.400239569535E+03    0.13635E-02   -0.11684E-02  2840   0.253E-01    0.474E-01
DAV:  38    -0.400238559543E+03    0.10100E-02   -0.58253E-03  3424   0.155E-01    0.302E-01
DAV:  39    -0.400238460504E+03    0.99040E-04   -0.12826E-03  2920   0.737E-02    0.195E-01
DAV:  40    -0.400238771522E+03   -0.31102E-03   -0.53764E-04  2720   0.668E-02    0.162E-01
DAV:  41    -0.400238635389E+03    0.13613E-03   -0.77653E-04  3056   0.630E-02    0.108E-01
DAV:  42    -0.400238628792E+03    0.65969E-05   -0.71324E-05  2792   0.212E-02    0.928E-02
DAV:  43    -0.400238607271E+03    0.21521E-04   -0.35879E-05  2472   0.121E-02    0.624E-02
DAV:  44    -0.400238589125E+03    0.18145E-04   -0.27122E-05  2136   0.985E-03    0.301E-02
DAV:  45    -0.400238585768E+03    0.33571E-05   -0.10852E-05  1600   0.683E-03
   1 F= -.40023859E+03 E0= -.40018408E+03  d E =-.109011E+00
 running on   16 total cores
 distrk:  each k-point on    8 cores,    2 groups
 distr:  one band on    4 cores,    2 groups
 using from now: INCAR     
 vasp.5.4.4.18Apr17-6-g9f103f2a35 (build Nov 27 2019 20:08:17) complex          
  
 POSCAR found type information on POSCAR  Ti
 POSCAR found :  1 types and      36 ions
 scaLAPACK will be used

 ----------------------------------------------------------------------------- 
|                                                                             |
|           W    W    AA    RRRRR   N    N  II  N    N   GGGG   !!!           |
|           W    W   A  A   R    R  NN   N  II  NN   N  G    G  !!!           |
|           W    W  A    A  R    R  N N  N  II  N N  N  G       !!!           |
|           W WW W  AAAAAA  RRRRR   N  N N  II  N  N N  G  GGG   !            |
|           WW  WW  A    A  R   R   N   NN  II  N   NN  G    G                |
|           W    W  A    A  R    R  N    N  II  N    N   GGGG   !!!           |
|                                                                             |
|      You have enabled k-point parallelism (KPAR>1).                         |
|      This developmental code was originally  written by Paul Kent at ORNL,  |
|      and carefully double checked in Vienna.                                |
|      GW as well as linear response parallelism added by Martijn Marsman     |
|      and Georg Kresse.                                                      |
|      Carefully verify results versus KPAR=1.                                |
|      Report problems to Paul Kent and Vienna.                               |
|                                                                             |
 ----------------------------------------------------------------------------- 

 LDA part: xc-table for Pade appr. of Perdew
 POSCAR found type information on POSCAR  Ti
 POSCAR found :  1 types and      36 ions
 POSCAR, INCAR and KPOINTS ok, starting setup
 FFT: planning ...
 WAVECAR not read
 WARNING: random wavefunctions but no delay for mixing, default for NELMDL
 entering main loop
       N       E                     dE             d eps       ncg     rms          rms(c)
DAV:   1     0.727146993431E+03    0.72715E+03   -0.40491E+04  1288   0.107E+03
DAV:   2    -0.185718255400E+03   -0.91287E+03   -0.87697E+03  1288   0.243E+02
DAV:   3    -0.320262735059E+03   -0.13454E+03   -0.12583E+03  1992   0.863E+01
DAV:   4    -0.330631195428E+03   -0.10368E+02   -0.96549E+01  1928   0.279E+01
DAV:   5    -0.331138658453E+03   -0.50746E+00   -0.49776E+00  2056   0.571E+00    0.782E+01
DAV:   6    -0.501566314108E+03   -0.17043E+03   -0.28979E+03  2428   0.990E+01    0.997E+01
DAV:   7    -0.286159832421E+03    0.21541E+03   -0.39264E+03  2220   0.176E+02    0.340E+01
DAV:   8    -0.285635968641E+03    0.52386E+00   -0.57964E+02  1900   0.782E+01    0.387E+01
DAV:   9    -0.268770270514E+03    0.16866E+02   -0.90011E+01  2020   0.312E+01    0.291E+01
DAV:  10    -0.266577691312E+03    0.21926E+01   -0.68803E+00  2064   0.693E+00    0.270E+01
DAV:  11    -0.264890612701E+03    0.16871E+01   -0.12389E+00  2160   0.307E+00    0.246E+01
DAV:  12    -0.261633982712E+03    0.32566E+01   -0.96808E+00  1912   0.946E+00    0.197E+01
DAV:  13    -0.256324637796E+03    0.53093E+01   -0.25085E+01  2112   0.137E+01    0.680E+00
DAV:  14    -0.256057514237E+03    0.26712E+00   -0.25379E+00  2088   0.411E+00    0.456E+00
DAV:  15    -0.256181086643E+03   -0.12357E+00   -0.71676E-01  2040   0.235E+00    0.509E+00
DAV:  16    -0.255900593149E+03    0.28049E+00   -0.22989E+00  2080   0.390E+00    0.290E+00
DAV:  17    -0.255787738224E+03    0.11285E+00   -0.56680E-01  2040   0.238E+00    0.107E+00
DAV:  18    -0.255789398023E+03   -0.16598E-02   -0.17470E-01  2024   0.126E+00    0.842E-01
DAV:  19    -0.255825462877E+03   -0.36065E-01   -0.35159E-01  1968   0.174E+00    0.165E+00
DAV:  20    -0.255802056306E+03    0.23407E-01   -0.22181E-01  1984   0.123E+00    0.694E-01
DAV:  21    -0.255794555066E+03    0.75012E-02   -0.26580E-02  1904   0.626E-01    0.202E-01
DAV:  22    -0.255795916834E+03   -0.13618E-02   -0.61226E-03  2136   0.184E-01    0.222E-01
DAV:  23    -0.255796387117E+03   -0.47028E-03   -0.46342E-03  1992   0.214E-01    0.932E-02
DAV:  24    -0.255796386106E+03    0.10108E-05   -0.62234E-04  2024   0.694E-02    0.489E-02
DAV:  25    -0.255796577583E+03   -0.19148E-03   -0.45201E-04  2096   0.473E-02    0.493E-02
DAV:  26    -0.255796819750E+03   -0.24217E-03   -0.34777E-04  2032   0.480E-02    0.326E-02
DAV:  27    -0.255796982524E+03   -0.16277E-03   -0.12544E-04  1880   0.254E-02    0.208E-02
DAV:  28    -0.255797156513E+03   -0.17399E-03   -0.17962E-05  1368   0.132E-02    0.909E-03
DAV:  29    -0.255797235797E+03   -0.79284E-04   -0.38075E-05  1680   0.141E-02    0.164E-02
DAV:  30    -0.255797265834E+03   -0.30036E-04   -0.59780E-06   928   0.108E-02    0.777E-03
DAV:  31    -0.255797268521E+03   -0.26877E-05   -0.27149E-06   896   0.462E-03
   1 F= -.25579727E+03 E0= -.25572848E+03  d E =-.137576E+00
 running on   16 total cores
 distrk:  each k-point on    8 cores,    2 groups
 distr:  one band on    4 cores,    2 groups
 using from now: INCAR     
 vasp.5.4.4.18Apr17-6-g9f103f2a35 (build Nov 27 2019 20:08:17) complex          
  
 POSCAR found type information on POSCAR  Ti
 POSCAR found :  1 types and      90 ions
 scaLAPACK will be used

 ----------------------------------------------------------------------------- 
|                                                                             |
|           W    W    AA    RRRRR   N    N  II  N    N   GGGG   !!!           |
|           W    W   A  A   R    R  NN   N  II  NN   N  G    G  !!!           |
|           W    W  A    A  R    R  N N  N  II  N N  N  G       !!!           |
|           W WW W  AAAAAA  RRRRR   N  N N  II  N  N N  G  GGG   !            |
|           WW  WW  A    A  R   R   N   NN  II  N   NN  G    G                |
|           W    W  A    A  R    R  N    N  II  N    N   GGGG   !!!           |
|                                                                             |
|      You have enabled k-point parallelism (KPAR>1).                         |
|      This developmental code was originally  written by Paul Kent at ORNL,  |
|      and carefully double checked in Vienna.                                |
|      GW as well as linear response parallelism added by Martijn Marsman     |
|      and Georg Kresse.                                                      |
|      Carefully verify results versus KPAR=1.                                |
|      Report problems to Paul Kent and Vienna.                               |
|                                                                             |
 ----------------------------------------------------------------------------- 

 LDA part: xc-table for Pade appr. of Perdew
 POSCAR found type information on POSCAR  Ti
 POSCAR found :  1 types and      90 ions
 POSCAR, INCAR and KPOINTS ok, starting setup
 FFT: planning ...
 WAVECAR not read
 WARNING: random wavefunctions but no delay for mixing, default for NELMDL
 entering main loop
       N       E                     dE             d eps       ncg     rms          rms(c)
DAV:   1     0.155113683274E+04    0.15511E+04   -0.10326E+05  3164   0.124E+03
DAV:   2    -0.464409070174E+03   -0.20155E+04   -0.19596E+04  3164   0.278E+02
DAV:   3    -0.763729358356E+03   -0.29932E+03   -0.27989E+03  4672   0.966E+01
DAV:   4    -0.788653398385E+03   -0.24924E+02   -0.23486E+02  4688   0.288E+01
DAV:   5    -0.789645041968E+03   -0.99164E+00   -0.96582E+00  4584   0.458E+00    0.118E+02
DAV:   6    -0.186429432401E+04   -0.10746E+04   -0.10251E+04  6258   0.168E+02    0.143E+02
DAV:   7    -0.107173300876E+04    0.79256E+03   -0.17676E+04  5788   0.176E+02    0.943E+01
DAV:   8    -0.674153873832E+03    0.39758E+03   -0.31506E+03  4978   0.132E+02    0.583E+01
DAV:   9    -0.711171204903E+03   -0.37017E+02   -0.11301E+03  5408   0.616E+01    0.505E+01
DAV:  10    -0.726804296951E+03   -0.15633E+02   -0.26532E+02  5264   0.348E+01    0.464E+01
DAV:  11    -0.701827780360E+03    0.24977E+02   -0.79688E+01  5568   0.274E+01    0.372E+01
DAV:  12    -0.700939246821E+03    0.88853E+00   -0.12206E+01  5056   0.611E+00    0.361E+01
DAV:  13    -0.699531340204E+03    0.14079E+01   -0.69084E+00  5056   0.547E+00    0.344E+01
DAV:  14    -0.699884147038E+03   -0.35281E+00   -0.60909E-01  4400   0.173E+00    0.345E+01
DAV:  15    -0.699760145876E+03    0.12400E+00   -0.26333E-01  4952   0.888E-01    0.343E+01
DAV:  16    -0.700022055094E+03   -0.26191E+00   -0.74973E-02  5056   0.491E-01    0.346E+01
DAV:  17    -0.695622119972E+03    0.43999E+01   -0.56209E+00  4944   0.522E+00    0.303E+01
DAV:  18    -0.685747582285E+03    0.98745E+01   -0.21877E+01  3832   0.118E+01    0.217E+01
DAV:  19    -0.684408115712E+03    0.13395E+01   -0.76307E+00  4776   0.625E+00    0.210E+01
DAV:  20    -0.683937781517E+03    0.47033E+00   -0.11119E+00  4720   0.240E+00    0.194E+01
DAV:  21    -0.683380717357E+03    0.55706E+00   -0.12029E+00  4944   0.217E+00    0.146E+01
DAV:  22    -0.682994105920E+03    0.38661E+00   -0.58695E-01  4960   0.144E+00    0.117E+01
DAV:  23    -0.682748199435E+03    0.24591E+00   -0.12824E+00  5080   0.210E+00    0.906E+00
DAV:  24    -0.683041035514E+03   -0.29284E+00   -0.22575E+00  5120   0.279E+00    0.126E+01
DAV:  25    -0.681798849566E+03    0.12422E+01   -0.21994E+00  4504   0.339E+00    0.106E+01
DAV:  26    -0.681192631624E+03    0.60622E+00   -0.20644E+00  4056   0.352E+00    0.744E+00
DAV:  27    -0.681044546089E+03    0.14809E+00   -0.47273E-01  4504   0.167E+00    0.476E+00
DAV:  28    -0.681000996550E+03    0.43550E-01   -0.17930E-01  4336   0.100E+00    0.308E+00
DAV:  29    -0.680994324740E+03    0.66718E-02   -0.57820E-02  4864   0.482E-01    0.252E+00
DAV:  30    -0.680999100193E+03   -0.47755E-02   -0.58720E-02  4776   0.547E-01    0.242E+00
DAV:  31    -0.680997367661E+03    0.17325E-02   -0.29255E-02  4768   0.371E-01    0.236E+00
DAV:  32    -0.680986070595E+03    0.11297E-01   -0.19331E-02  4944   0.290E-01    0.169E+00
DAV:  33    -0.680980793430E+03    0.52772E-02   -0.14602E-02  5000   0.232E-01    0.102E+00
DAV:  34    -0.680979390801E+03    0.14026E-02   -0.43324E-03  4856   0.132E-01    0.670E-01
DAV:  35    -0.680978590240E+03    0.80056E-03   -0.37563E-03  5096   0.107E-01    0.309E-01
DAV:  36    -0.680978495087E+03    0.95154E-04   -0.13430E-03  4928   0.712E-02    0.226E-01
DAV:  37    -0.680978354452E+03    0.14063E-03   -0.36724E-04  4872   0.403E-02    0.195E-01
DAV:  38    -0.680978190439E+03    0.16401E-03   -0.52501E-04  4880   0.458E-02    0.139E-01
DAV:  39    -0.680978174370E+03    0.16069E-04   -0.33664E-04  4880   0.390E-02    0.130E-01
DAV:  40    -0.680978040363E+03    0.13401E-03   -0.42891E-04  4152   0.493E-02    0.404E-02
DAV:  41    -0.680978037876E+03    0.24864E-05   -0.78409E-05  4488   0.185E-02    0.257E-02
DAV:  42    -0.680978039028E+03   -0.11517E-05   -0.79513E-06  2320   0.679E-03
   1 F= -.68097804E+03 E0= -.68088305E+03  d E =-.189970E+00
Distance=1.750
 running on   16 total cores
 distrk:  each k-point on    8 cores,    2 groups
 distr:  one band on    4 cores,    2 groups
 using from now: INCAR     
 vasp.5.4.4.18Apr17-6-g9f103f2a35 (build Nov 27 2019 20:08:17) complex          
  
 POSCAR found type information on POSCAR  Ti
 POSCAR found :  1 types and      54 ions
 scaLAPACK will be used

 ----------------------------------------------------------------------------- 
|                                                                             |
|           W    W    AA    RRRRR   N    N  II  N    N   GGGG   !!!           |
|           W    W   A  A   R    R  NN   N  II  NN   N  G    G  !!!           |
|           W    W  A    A  R    R  N N  N  II  N N  N  G       !!!           |
|           W WW W  AAAAAA  RRRRR   N  N N  II  N  N N  G  GGG   !            |
|           WW  WW  A    A  R   R   N   NN  II  N   NN  G    G                |
|           W    W  A    A  R    R  N    N  II  N    N   GGGG   !!!           |
|                                                                             |
|      You have enabled k-point parallelism (KPAR>1).                         |
|      This developmental code was originally  written by Paul Kent at ORNL,  |
|      and carefully double checked in Vienna.                                |
|      GW as well as linear response parallelism added by Martijn Marsman     |
|      and Georg Kresse.                                                      |
|      Carefully verify results versus KPAR=1.                                |
|      Report problems to Paul Kent and Vienna.                               |
|                                                                             |
 ----------------------------------------------------------------------------- 

 LDA part: xc-table for Pade appr. of Perdew
 POSCAR found type information on POSCAR  Ti
 POSCAR found :  1 types and      54 ions
 POSCAR, INCAR and KPOINTS ok, starting setup
 FFT: planning ...
 WAVECAR not read
 WARNING: random wavefunctions but no delay for mixing, default for NELMDL
 entering main loop
       N       E                     dE             d eps       ncg     rms          rms(c)
DAV:   1     0.994591721496E+03    0.99459E+03   -0.61946E+04  1904   0.115E+03
DAV:   2    -0.280897617223E+03   -0.12755E+04   -0.12365E+04  1904   0.256E+02
DAV:   3    -0.468471206185E+03   -0.18757E+03   -0.17829E+03  2952   0.878E+01
DAV:   4    -0.485155915355E+03   -0.16685E+02   -0.15893E+02  3056   0.275E+01
DAV:   5    -0.486214961220E+03   -0.10590E+01   -0.10028E+01  3040   0.558E+00    0.858E+01
DAV:   6    -0.925652317263E+03   -0.43944E+03   -0.53670E+03  3768   0.108E+02    0.128E+02
DAV:   7    -0.438893540113E+03    0.48676E+03   -0.70993E+03  3408   0.158E+02    0.484E+01
DAV:   8    -0.408532342196E+03    0.30361E+02   -0.10514E+03  3160   0.919E+01    0.328E+01
DAV:   9    -0.415711901246E+03   -0.71796E+01   -0.19507E+02  3176   0.273E+01    0.293E+01
DAV:  10    -0.417650419434E+03   -0.19385E+01   -0.18566E+01  3144   0.778E+00    0.310E+01
DAV:  11    -0.417644068334E+03    0.63511E-02   -0.15484E+00  3152   0.160E+00    0.309E+01
DAV:  12    -0.418434389159E+03   -0.79032E+00   -0.30205E+00  3024   0.422E+00    0.320E+01
DAV:  13    -0.418575659368E+03   -0.14127E+00   -0.35768E-01  2856   0.141E+00    0.335E+01
DAV:  14    -0.439107185678E+03   -0.20532E+02   -0.70700E+01  3048   0.171E+01    0.535E+01
DAV:  15    -0.437724165291E+03    0.13830E+01   -0.89932E+00  3000   0.707E+00    0.522E+01
DAV:  16    -0.440573677779E+03   -0.28495E+01   -0.14244E+00  2888   0.255E+00    0.530E+01
DAV:  17    -0.440478931156E+03    0.94747E-01   -0.39943E+00  2872   0.465E+00    0.479E+01
DAV:  18    -0.442043254158E+03   -0.15643E+01   -0.19133E+00  2984   0.301E+00    0.472E+01
DAV:  19    -0.437573006969E+03    0.44702E+01   -0.22931E+00  2736   0.333E+00    0.466E+01
DAV:  20    -0.439349667836E+03   -0.17767E+01   -0.89129E-01  2784   0.238E+00    0.464E+01
DAV:  21    -0.439703664142E+03   -0.35400E+00   -0.36868E-02  2632   0.599E-01    0.461E+01
DAV:  22    -0.440090716666E+03   -0.38705E+00   -0.55207E-03  3008   0.158E-01    0.464E+01
DAV:  23    -0.440138989057E+03   -0.48272E-01   -0.71131E-04  2712   0.659E-02    0.464E+01
DAV:  24    -0.439327325344E+03    0.81166E+00   -0.17153E-02  2872   0.294E-01    0.462E+01
DAV:  25    -0.440307557230E+03   -0.98023E+00   -0.40692E-02  2776   0.442E-01    0.462E+01
DAV:  26    -0.411113833001E+03    0.29194E+02   -0.33744E+01  2840   0.122E+01    0.307E+01
DAV:  27    -0.411298362079E+03   -0.18453E+00   -0.27579E+00  2856   0.488E+00    0.294E+01
DAV:  28    -0.410864540502E+03    0.43382E+00   -0.19460E-01  3184   0.865E-01    0.289E+01
DAV:  29    -0.406898934423E+03    0.39656E+01   -0.20795E+00  3104   0.339E+00    0.239E+01
DAV:  30    -0.402227907054E+03    0.46710E+01   -0.53817E+00  3016   0.488E+00    0.156E+01
DAV:  31    -0.402140871683E+03    0.87035E-01   -0.56252E-01  2696   0.218E+00    0.143E+01
DAV:  32    -0.401238788193E+03    0.90208E+00   -0.71066E-01  3032   0.161E+00    0.113E+01
DAV:  33    -0.401393046732E+03   -0.15426E+00   -0.27339E-01  2744   0.125E+00    0.992E+00
DAV:  34    -0.400679627947E+03    0.71342E+00   -0.79390E-01  3104   0.187E+00    0.731E+00
DAV:  35    -0.400571156429E+03    0.10847E+00   -0.13482E-01  3224   0.715E-01    0.665E+00
DAV:  36    -0.400447425137E+03    0.12373E+00   -0.81081E-02  3072   0.526E-01    0.583E+00
DAV:  37    -0.400403802490E+03    0.43623E-01   -0.20050E-02  2792   0.319E-01    0.529E+00
DAV:  38    -0.400357840299E+03    0.45962E-01   -0.34910E-02  3104   0.376E-01    0.442E+00
DAV:  39    -0.400259816620E+03    0.98024E-01   -0.13544E-01  2656   0.921E-01    0.241E+00
DAV:  40    -0.400247053473E+03    0.12763E-01   -0.57878E-02  2720   0.563E-01    0.133E+00
DAV:  41    -0.400242584218E+03    0.44693E-02   -0.11192E-02  2896   0.228E-01    0.821E-01
DAV:  42    -0.400239652924E+03    0.29313E-02   -0.86317E-03  3064   0.133E-01    0.462E-01
DAV:  43    -0.400238922164E+03    0.73076E-03   -0.46123E-03  2736   0.159E-01    0.259E-01
DAV:  44    -0.400239102349E+03   -0.18018E-03   -0.18023E-03  2808   0.117E-01    0.135E-01
DAV:  45    -0.400239032061E+03    0.70288E-04   -0.32708E-04  2888   0.341E-02    0.879E-02
DAV:  46    -0.400238965115E+03    0.66946E-04   -0.71172E-05  2888   0.245E-02    0.609E-02
DAV:  47    -0.400238860723E+03    0.10439E-03   -0.29766E-04  3024   0.341E-02    0.264E-02
DAV:  48    -0.400238853491E+03    0.72322E-05   -0.43733E-05  2464   0.130E-02    0.181E-02
DAV:  49    -0.400238855128E+03   -0.16375E-05   -0.54820E-06  1424   0.738E-03
   1 F= -.40023886E+03 E0= -.40018437E+03  d E =-.108979E+00
 running on   16 total cores
 distrk:  each k-point on    8 cores,    2 groups
 distr:  one band on    4 cores,    2 groups
 using from now: INCAR     
 vasp.5.4.4.18Apr17-6-g9f103f2a35 (build Nov 27 2019 20:08:17) complex          
  
 POSCAR found type information on POSCAR  Ti
 POSCAR found :  1 types and      36 ions
 scaLAPACK will be used

 ----------------------------------------------------------------------------- 
|                                                                             |
|           W    W    AA    RRRRR   N    N  II  N    N   GGGG   !!!           |
|           W    W   A  A   R    R  NN   N  II  NN   N  G    G  !!!           |
|           W    W  A    A  R    R  N N  N  II  N N  N  G       !!!           |
|           W WW W  AAAAAA  RRRRR   N  N N  II  N  N N  G  GGG   !            |
|           WW  WW  A    A  R   R   N   NN  II  N   NN  G    G                |
|           W    W  A    A  R    R  N    N  II  N    N   GGGG   !!!           |
|                                                                             |
|      You have enabled k-point parallelism (KPAR>1).                         |
|      This developmental code was originally  written by Paul Kent at ORNL,  |
|      and carefully double checked in Vienna.                                |
|      GW as well as linear response parallelism added by Martijn Marsman     |
|      and Georg Kresse.                                                      |
|      Carefully verify results versus KPAR=1.                                |
|      Report problems to Paul Kent and Vienna.                               |
|                                                                             |
 ----------------------------------------------------------------------------- 

 LDA part: xc-table for Pade appr. of Perdew
 POSCAR found type information on POSCAR  Ti
 POSCAR found :  1 types and      36 ions
 POSCAR, INCAR and KPOINTS ok, starting setup
 FFT: planning ...
 WAVECAR not read
 WARNING: random wavefunctions but no delay for mixing, default for NELMDL
 entering main loop
       N       E                     dE             d eps       ncg     rms          rms(c)
DAV:   1     0.725528488858E+03    0.72553E+03   -0.40509E+04  1288   0.107E+03
DAV:   2    -0.185745209051E+03   -0.91127E+03   -0.87425E+03  1292   0.242E+02
DAV:   3    -0.320251707048E+03   -0.13451E+03   -0.12634E+03  1944   0.860E+01
DAV:   4    -0.330577129008E+03   -0.10325E+02   -0.96781E+01  1912   0.286E+01
DAV:   5    -0.331132002789E+03   -0.55487E+00   -0.54148E+00  2024   0.590E+00    0.781E+01
DAV:   6    -0.501444592833E+03   -0.17031E+03   -0.28994E+03  2420   0.991E+01    0.997E+01
DAV:   7    -0.286503392859E+03    0.21494E+03   -0.39446E+03  2228   0.176E+02    0.340E+01
DAV:   8    -0.284777338267E+03    0.17261E+01   -0.57047E+02  1884   0.780E+01    0.383E+01
DAV:   9    -0.268682359748E+03    0.16095E+02   -0.85062E+01  2040   0.300E+01    0.290E+01
DAV:  10    -0.266809721902E+03    0.18726E+01   -0.62958E+00  2096   0.658E+00    0.272E+01
DAV:  11    -0.265266727289E+03    0.15430E+01   -0.10615E+00  2116   0.280E+00    0.251E+01
DAV:  12    -0.261028436352E+03    0.42383E+01   -0.14989E+01  1916   0.118E+01    0.184E+01
DAV:  13    -0.256284529877E+03    0.47439E+01   -0.23625E+01  2152   0.126E+01    0.669E+00
DAV:  14    -0.256080084275E+03    0.20445E+00   -0.21013E+00  2072   0.401E+00    0.477E+00
DAV:  15    -0.256241829973E+03   -0.16175E+00   -0.10671E+00  2024   0.268E+00    0.547E+00
DAV:  16    -0.255933635841E+03    0.30819E+00   -0.29404E+00  2080   0.421E+00    0.322E+00
DAV:  17    -0.255803512996E+03    0.13012E+00   -0.44127E-01  2000   0.214E+00    0.154E+00
DAV:  18    -0.255796616027E+03    0.68970E-02   -0.49583E-01  2096   0.212E+00    0.112E+00
DAV:  19    -0.255822358990E+03   -0.25743E-01   -0.41751E-01  1992   0.170E+00    0.164E+00
DAV:  20    -0.255807826298E+03    0.14533E-01   -0.86128E-02  2160   0.898E-01    0.100E+00
DAV:  21    -0.255795117429E+03    0.12709E-01   -0.10191E-01  2032   0.892E-01    0.288E-01
DAV:  22    -0.255795646944E+03   -0.52952E-03   -0.10695E-02  1936   0.284E-01    0.199E-01
DAV:  23    -0.255796000532E+03   -0.35359E-03   -0.20534E-03  1992   0.946E-02    0.151E-01
DAV:  24    -0.255796035293E+03   -0.34761E-04   -0.22744E-03  2016   0.144E-01    0.608E-02
DAV:  25    -0.255796290363E+03   -0.25507E-03   -0.44330E-04  1944   0.600E-02    0.333E-02
DAV:  26    -0.255796456916E+03   -0.16655E-03   -0.11222E-04  1840   0.315E-02    0.233E-02
DAV:  27    -0.255796737635E+03   -0.28072E-03   -0.45371E-05  1720   0.141E-02    0.795E-03
DAV:  28    -0.255796891017E+03   -0.15338E-03   -0.77060E-05  1904   0.205E-02    0.316E-02
DAV:  29    -0.255796954205E+03   -0.63188E-04   -0.11891E-04  1848   0.307E-02    0.116E-02
DAV:  30    -0.255796988090E+03   -0.33885E-04   -0.91575E-06  1080   0.914E-03    0.302E-03
[...]
DAV:  30    -0.680471851182E+03    0.36916E-04   -0.16093E-03  4992   0.740E-02    0.690E-02
DAV:  31    -0.680471816927E+03    0.34255E-04   -0.34072E-04  4712   0.380E-02    0.444E-02
DAV:  32    -0.680471819302E+03   -0.23752E-05   -0.10486E-04  4816   0.225E-02    0.351E-02
DAV:  33    -0.680471812639E+03    0.66636E-05   -0.14805E-04  4672   0.274E-02    0.315E-02
DAV:  34    -0.680471802261E+03    0.10378E-04   -0.35720E-05  3680   0.135E-02    0.235E-02
DAV:  35    -0.680471797017E+03    0.52437E-05   -0.31915E-05  3752   0.133E-02    0.127E-02
DAV:  36    -0.680471795598E+03    0.14193E-05   -0.34722E-06  2016   0.550E-03
   1 F= -.68047180E+03 E0= -.68038360E+03  d E =-.176390E+00
Distance=2.450
 running on   16 total cores
 distrk:  each k-point on    8 cores,    2 groups
 distr:  one band on    4 cores,    2 groups
 using from now: INCAR     
 vasp.5.4.4.18Apr17-6-g9f103f2a35 (build Nov 27 2019 20:08:17) complex          
  
 POSCAR found type information on POSCAR  Ti
 POSCAR found :  1 types and      54 ions
 scaLAPACK will be used

 ----------------------------------------------------------------------------- 
|                                                                             |
|           W    W    AA    RRRRR   N    N  II  N    N   GGGG   !!!           |
|           W    W   A  A   R    R  NN   N  II  NN   N  G    G  !!!           |
|           W    W  A    A  R    R  N N  N  II  N N  N  G       !!!           |
|           W WW W  AAAAAA  RRRRR   N  N N  II  N  N N  G  GGG   !            |
|           WW  WW  A    A  R   R   N   NN  II  N   NN  G    G                |
|           W    W  A    A  R    R  N    N  II  N    N   GGGG   !!!           |
|                                                                             |
|      You have enabled k-point parallelism (KPAR>1).                         |
|      This developmental code was originally  written by Paul Kent at ORNL,  |
|      and carefully double checked in Vienna.                                |
|      GW as well as linear response parallelism added by Martijn Marsman     |
|      and Georg Kresse.                                                      |
|      Carefully verify results versus KPAR=1.                                |
|      Report problems to Paul Kent and Vienna.                               |
|                                                                             |
 ----------------------------------------------------------------------------- 

 LDA part: xc-table for Pade appr. of Perdew
 POSCAR found type information on POSCAR  Ti
 POSCAR found :  1 types and      54 ions
 POSCAR, INCAR and KPOINTS ok, starting setup
 FFT: planning ...
 WAVECAR not read
 WARNING: random wavefunctions but no delay for mixing, default for NELMDL
 entering main loop
       N       E                     dE             d eps       ncg     rms          rms(c)
DAV:   1     0.101535686643E+04    0.10154E+04   -0.61929E+04  1904   0.114E+03
DAV:   2    -0.278742401939E+03   -0.12941E+04   -0.12538E+04  1904   0.255E+02
DAV:   3    -0.468068945893E+03   -0.18933E+03   -0.18014E+03  3008   0.872E+01
DAV:   4    -0.485080359751E+03   -0.17011E+02   -0.16140E+02  3064   0.276E+01
DAV:   5    -0.486197458958E+03   -0.11171E+01   -0.10554E+01  3048   0.565E+00    0.858E+01
DAV:   6    -0.925623136622E+03   -0.43943E+03   -0.53570E+03  3776   0.108E+02    0.128E+02
DAV:   7    -0.452901119727E+03    0.47272E+03   -0.75201E+03  3400   0.161E+02    0.507E+01
DAV:   8    -0.409133095239E+03    0.43768E+02   -0.10985E+03  3160   0.970E+01    0.340E+01
DAV:   9    -0.416394736168E+03   -0.72616E+01   -0.22315E+02  3200   0.301E+01    0.302E+01
DAV:  10    -0.418052888472E+03   -0.16582E+01   -0.23009E+01  3160   0.863E+00    0.314E+01
DAV:  11    -0.418230543628E+03   -0.17766E+00   -0.16951E+00  3064   0.176E+00    0.316E+01
DAV:  12    -0.421593565927E+03   -0.33630E+01   -0.62699E+00  3048   0.568E+00    0.344E+01
DAV:  13    -0.417186519373E+03    0.44070E+01   -0.98179E+00  3024   0.701E+00    0.301E+01
DAV:  14    -0.413674620781E+03    0.35119E+01   -0.27785E+01  3000   0.123E+01    0.253E+01
DAV:  15    -0.422718805565E+03   -0.90442E+01   -0.68317E+01  2944   0.204E+01    0.264E+01
DAV:  16    -0.415005840284E+03    0.77130E+01   -0.10300E+01  2760   0.820E+00    0.228E+01
DAV:  17    -0.408211042584E+03    0.67948E+01   -0.71426E+00  2920   0.499E+00    0.183E+01
DAV:  18    -0.409405410573E+03   -0.11944E+01   -0.85730E-01  2752   0.254E+00    0.188E+01
DAV:  19    -0.408641372079E+03    0.76404E+00   -0.15785E-01  2520   0.124E+00    0.179E+01
DAV:  20    -0.405334873697E+03    0.33065E+01   -0.21646E+00  3016   0.297E+00    0.146E+01
DAV:  21    -0.405140177570E+03    0.19470E+00   -0.14094E-01  2808   0.101E+00    0.143E+01
DAV:  22    -0.404584437238E+03    0.55574E+00   -0.88478E-02  3184   0.522E-01    0.136E+01
DAV:  23    -0.403866896035E+03    0.71754E+00   -0.24324E-01  3088   0.112E+00    0.127E+01
DAV:  24    -0.403569753898E+03    0.29714E+00   -0.48198E-02  3128   0.508E-01    0.122E+01
DAV:  25    -0.403398723374E+03    0.17103E+00   -0.14631E-02  3200   0.213E-01    0.119E+01
DAV:  26    -0.403288798872E+03    0.10992E+00   -0.50750E-03  3160   0.120E-01    0.117E+01
DAV:  27    -0.403219282314E+03    0.69517E-01   -0.20359E-03  3200   0.834E-02    0.116E+01
DAV:  28    -0.402758753052E+03    0.46053E+00   -0.85875E-02  3080   0.542E-01    0.107E+01
DAV:  29    -0.401860414998E+03    0.89834E+00   -0.48608E-01  3088   0.134E+00    0.853E+00
DAV:  30    -0.400481351127E+03    0.13791E+01   -0.29439E+00  3080   0.292E+00    0.336E+00
DAV:  31    -0.400448997243E+03    0.32354E-01   -0.21321E-01  2880   0.118E+00    0.308E+00
DAV:  32    -0.400325912470E+03    0.12308E+00   -0.19220E-01  3080   0.750E-01    0.194E+00
DAV:  33    -0.400286384717E+03    0.39528E-01   -0.52216E-02  3192   0.392E-01    0.145E+00
DAV:  34    -0.400244445890E+03    0.41939E-01   -0.10160E-01  2992   0.549E-01    0.603E-01
DAV:  35    -0.400239853327E+03    0.45926E-02   -0.35350E-02  3120   0.366E-01    0.280E-01
DAV:  36    -0.400238821324E+03    0.10320E-02   -0.72003E-03  2864   0.223E-01    0.155E-01
DAV:  37    -0.400239421643E+03   -0.60032E-03   -0.30803E-03  2608   0.135E-01    0.235E-01
DAV:  38    -0.400238921263E+03    0.50038E-03   -0.13410E-03  3104   0.881E-02    0.141E-01
DAV:  39    -0.400238693534E+03    0.22773E-03   -0.48992E-04  2616   0.606E-02    0.667E-02
DAV:  40    -0.400238659455E+03    0.34079E-04   -0.13196E-04  2928   0.278E-02    0.350E-02
DAV:  41    -0.400238652711E+03    0.67441E-05   -0.19880E-05  1920   0.958E-03    0.251E-02
DAV:  42    -0.400238645342E+03    0.73698E-05   -0.56234E-05  2728   0.111E-02    0.658E-03
DAV:  43    -0.400238647565E+03   -0.22237E-05   -0.50316E-06  1416   0.583E-03
   1 F= -.40023865E+03 E0= -.40018413E+03  d E =-.109030E+00
 running on   16 total cores
 distrk:  each k-point on    8 cores,    2 groups
 distr:  one band on    4 cores,    2 groups
 using from now: INCAR     
 vasp.5.4.4.18Apr17-6-g9f103f2a35 (build Nov 27 2019 20:08:17) complex          
  
 POSCAR found type information on POSCAR  Ti
 POSCAR found :  1 types and      36 ions
 scaLAPACK will be used

 ----------------------------------------------------------------------------- 
|                                                                             |
|           W    W    AA    RRRRR   N    N  II  N    N   GGGG   !!!           |
|           W    W   A  A   R    R  NN   N  II  NN   N  G    G  !!!           |
|           W    W  A    A  R    R  N N  N  II  N N  N  G       !!!           |
|           W WW W  AAAAAA  RRRRR   N  N N  II  N  N N  G  GGG   !            |
|           WW  WW  A    A  R   R   N   NN  II  N   NN  G    G                |
|           W    W  A    A  R    R  N    N  II  N    N   GGGG   !!!           |
|                                                                             |
|      You have enabled k-point parallelism (KPAR>1).                         |
|      This developmental code was originally  written by Paul Kent at ORNL,  |
|      and carefully double checked in Vienna.                                |
|      GW as well as linear response parallelism added by Martijn Marsman     |
|      and Georg Kresse.                                                      |
|      Carefully verify results versus KPAR=1.                                |
|      Report problems to Paul Kent and Vienna.                               |
|                                                                             |
 ----------------------------------------------------------------------------- 

 LDA part: xc-table for Pade appr. of Perdew
 POSCAR found type information on POSCAR  Ti
 POSCAR found :  1 types and      36 ions
 POSCAR, INCAR and KPOINTS ok, starting setup
 FFT: planning ...
 WAVECAR not read
 WARNING: random wavefunctions but no delay for mixing, default for NELMDL
 entering main loop
       N       E                     dE             d eps       ncg     rms          rms(c)
DAV:   1     0.729273988069E+03    0.72927E+03   -0.40288E+04  1288   0.106E+03
DAV:   2    -0.188205517826E+03   -0.91748E+03   -0.88061E+03  1300   0.242E+02
DAV:   3    -0.320914607761E+03   -0.13271E+03   -0.12481E+03  2000   0.853E+01
DAV:   4    -0.330617573178E+03   -0.97030E+01   -0.91096E+01  1920   0.277E+01
DAV:   5    -0.331132392815E+03   -0.51482E+00   -0.50236E+00  2000   0.569E+00    0.782E+01
DAV:   6    -0.507262672204E+03   -0.17613E+03   -0.29803E+03  2436   0.100E+02    0.100E+02
DAV:   7    -0.288603512723E+03    0.21866E+03   -0.40785E+03  2252   0.180E+02    0.345E+01
DAV:   8    -0.284387958182E+03    0.42156E+01   -0.57638E+02  1896   0.791E+01    0.380E+01
DAV:   9    -0.269148249392E+03    0.15240E+02   -0.79646E+01  2056   0.288E+01    0.294E+01
DAV:  10    -0.267401719090E+03    0.17465E+01   -0.59247E+00  2072   0.634E+00    0.277E+01
DAV:  11    -0.265623937193E+03    0.17778E+01   -0.13083E+00  2160   0.320E+00    0.253E+01
DAV:  12    -0.262405268416E+03    0.32187E+01   -0.76742E+00  1940   0.842E+00    0.209E+01
DAV:  13    -0.256387977390E+03    0.60173E+01   -0.28181E+01  2104   0.149E+01    0.714E+00
DAV:  14    -0.256106886816E+03    0.28109E+00   -0.27949E+00  2096   0.420E+00    0.492E+00
DAV:  15    -0.256180992521E+03   -0.74106E-01   -0.52798E-01  2040   0.207E+00    0.512E+00
DAV:  16    -0.255959304272E+03    0.22169E+00   -0.23310E+00  2088   0.365E+00    0.346E+00
DAV:  17    -0.255799860005E+03    0.15944E+00   -0.78140E-01  2088   0.273E+00    0.148E+00
DAV:  18    -0.255780010890E+03    0.19849E-01   -0.17760E-01  1920   0.127E+00    0.667E-01
DAV:  19    -0.255806209058E+03   -0.26198E-01   -0.15519E-01  1960   0.113E+00    0.121E+00
DAV:  20    -0.255797230293E+03    0.89788E-02   -0.16564E-01  1976   0.107E+00    0.651E-01
DAV:  21    -0.255791575900E+03    0.56544E-02   -0.24460E-02  1944   0.565E-01    0.183E-01
DAV:  22    -0.255795397629E+03   -0.38217E-02   -0.10548E-02  2088   0.241E-01    0.242E-01
DAV:  23    -0.255796226091E+03   -0.82846E-03   -0.35067E-03  1928   0.176E-01    0.523E-02
DAV:  24    -0.255796925787E+03   -0.69970E-03   -0.98740E-04  2040   0.865E-02    0.936E-02
DAV:  25    -0.255797083401E+03   -0.15761E-03   -0.95942E-04  2016   0.850E-02    0.466E-02
DAV:  26    -0.255797209210E+03   -0.12581E-03   -0.13981E-04  1816   0.389E-02    0.194E-02
DAV:  27    -0.255797277841E+03   -0.68631E-04   -0.41942E-05  1824   0.135E-02    0.952E-03
DAV:  28    -0.255797365806E+03   -0.87966E-04   -0.96066E-06  1104   0.993E-03    0.567E-03
DAV:  29    -0.255797445258E+03   -0.79452E-04   -0.24001E-05  1504   0.115E-02    0.181E-02
DAV:  30    -0.255797459134E+03   -0.13876E-04   -0.94894E-06  1064   0.122E-02    0.767E-03
DAV:  31    -0.255797468050E+03   -0.89158E-05   -0.46131E-06   896   0.453E-03    0.384E-03
DAV:  32    -0.255797488369E+03   -0.20319E-04   -0.51408E-06   888   0.680E-03    0.375E-03
DAV:  33    -0.255797506315E+03   -0.17946E-04   -0.30658E-06   872   0.513E-03    0.251E-03
DAV:  34    -0.255797511717E+03   -0.54020E-05   -0.27758E-06   864   0.453E-03    0.535E-03
DAV:  35    -0.255797512290E+03   -0.57349E-06   -0.11946E-06   848   0.373E-03
   1 F= -.25579751E+03 E0= -.25572874E+03  d E =-.137551E+00
 running on   16 total cores
 distrk:  each k-point on    8 cores,    2 groups
 distr:  one band on    4 cores,    2 groups
 using from now: INCAR     
 vasp.5.4.4.18Apr17-6-g9f103f2a35 (build Nov 27 2019 20:08:17) complex          
  
 POSCAR found type information on POSCAR  Ti
 POSCAR found :  1 types and      90 ions
 scaLAPACK will be used

 ----------------------------------------------------------------------------- 
|                                                                             |
|           W    W    AA    RRRRR   N    N  II  N    N   GGGG   !!!           |
|           W    W   A  A   R    R  NN   N  II  NN   N  G    G  !!!           |
|           W    W  A    A  R    R  N N  N  II  N N  N  G       !!!           |
|           W WW W  AAAAAA  RRRRR   N  N N  II  N  N N  G  GGG   !            |
|           WW  WW  A    A  R   R   N   NN  II  N   NN  G    G                |
|           W    W  A    A  R    R  N    N  II  N    N   GGGG   !!!           |
|                                                                             |
|      You have enabled k-point parallelism (KPAR>1).                         |
|      This developmental code was originally  written by Paul Kent at ORNL,  |
|      and carefully double checked in Vienna.                                |
|      GW as well as linear response parallelism added by Martijn Marsman     |
|      and Georg Kresse.                                                      |
|      Carefully verify results versus KPAR=1.                                |
|      Report problems to Paul Kent and Vienna.                               |
|                                                                             |
 ----------------------------------------------------------------------------- 

 LDA part: xc-table for Pade appr. of Perdew
 POSCAR found type information on POSCAR  Ti
 POSCAR found :  1 types and      90 ions
 POSCAR, INCAR and KPOINTS ok, starting setup
 FFT: planning ...
 WAVECAR not read
 WARNING: random wavefunctions but no delay for mixing, default for NELMDL
 entering main loop
       N       E                     dE             d eps       ncg     rms          rms(c)
DAV:   1     0.149248809884E+04    0.14925E+04   -0.10289E+05  3164   0.123E+03
DAV:   2    -0.480648608753E+03   -0.19731E+04   -0.19196E+04  3164   0.274E+02
DAV:   3    -0.778751608826E+03   -0.29810E+03   -0.27961E+03  4800   0.942E+01
DAV:   4    -0.803677892305E+03   -0.24926E+02   -0.23769E+02  4760   0.279E+01
DAV:   5    -0.804696407290E+03   -0.10185E+01   -0.98995E+00  4648   0.429E+00    0.115E+02
DAV:   6    -0.141510026590E+04   -0.61040E+03   -0.61455E+03  6076   0.132E+02    0.888E+01
DAV:   7    -0.167940903361E+04   -0.26431E+03   -0.18226E+04  5780   0.151E+02    0.145E+02
DAV:   8    -0.632688241661E+03    0.10467E+04   -0.58654E+03  5640   0.170E+02    0.542E+01
DAV:   9    -0.720278532173E+03   -0.87590E+02   -0.21271E+03  5648   0.804E+01    0.543E+01
DAV:  10    -0.731841658177E+03   -0.11563E+02   -0.70605E+02  5472   0.592E+01    0.478E+01
DAV:  11    -0.699540618622E+03    0.32301E+02   -0.19537E+02  5568   0.369E+01    0.358E+01
DAV:  12    -0.693158892698E+03    0.63817E+01   -0.71899E+01  5224   0.161E+01    0.289E+01
DAV:  13    -0.688568632630E+03    0.45903E+01   -0.51476E+01  5048   0.134E+01    0.220E+01
DAV:  14    -0.686113613132E+03    0.24550E+01   -0.18612E+01  5024   0.951E+00    0.179E+01
DAV:  15    -0.684380849343E+03    0.17328E+01   -0.42804E+00  4808   0.504E+00    0.145E+01
DAV:  16    -0.684273381084E+03    0.10747E+00   -0.30133E-01  4344   0.117E+00    0.142E+01
DAV:  17    -0.683942560642E+03    0.33082E+00   -0.33695E-01  5072   0.109E+00    0.136E+01
DAV:  18    -0.682377328975E+03    0.15652E+01   -0.25775E+00  4976   0.322E+00    0.110E+01
DAV:  19    -0.680332929596E+03    0.20444E+01   -0.77095E+00  4952   0.610E+00    0.527E+00
DAV:  20    -0.680261575713E+03    0.71354E-01   -0.13738E+00  4720   0.262E+00    0.466E+00
DAV:  21    -0.680271723461E+03   -0.10148E-01   -0.15224E-01  4864   0.867E-01    0.462E+00
DAV:  22    -0.680295587487E+03   -0.23864E-01   -0.21947E-01  4888   0.880E-01    0.468E+00
DAV:  23    -0.680102323683E+03    0.19326E+00   -0.53008E-01  4792   0.162E+00    0.337E+00
DAV:  24    -0.680021494231E+03    0.80829E-01   -0.49416E-01  4976   0.151E+00    0.250E+00
DAV:  25    -0.680006030563E+03    0.15464E-01   -0.12999E-01  4672   0.783E-01    0.211E+00
DAV:  26    -0.679989969523E+03    0.16061E-01   -0.31008E-02  4784   0.402E-01    0.179E+00
DAV:  27    -0.679986068016E+03    0.39015E-02   -0.12871E-02  4944   0.208E-01    0.159E+00
DAV:  28    -0.679983452949E+03    0.26151E-02   -0.43291E-03  4832   0.119E-01    0.145E+00
DAV:  29    -0.679979140945E+03    0.43120E-02   -0.58805E-03  5000   0.148E-01    0.121E+00
DAV:  30    -0.679976213982E+03    0.29270E-02   -0.67540E-03  4640   0.175E-01    0.951E-01
DAV:  31    -0.679974328869E+03    0.18851E-02   -0.35584E-03  4920   0.108E-01    0.738E-01
DAV:  32    -0.679973179373E+03    0.11495E-02   -0.22374E-03  4944   0.909E-02    0.536E-01
DAV:  33    -0.679972613254E+03    0.56612E-03   -0.11044E-03  5008   0.604E-02    0.412E-01
DAV:  34    -0.679971993208E+03    0.62005E-03   -0.13036E-03  5056   0.628E-02    0.244E-01
DAV:  35    -0.679971847444E+03    0.14576E-03   -0.37496E-04  5032   0.374E-02    0.178E-01
DAV:  36    -0.679971693703E+03    0.15374E-03   -0.55702E-04  4680   0.516E-02    0.645E-02
DAV:  37    -0.679971677320E+03    0.16384E-04   -0.13131E-04  4856   0.222E-02    0.398E-02
DAV:  38    -0.679971672613E+03    0.47068E-05   -0.23126E-05  3176   0.110E-02
   1 F= -.67997167E+03 E0= -.67988376E+03  d E =-.175821E+00

DISTANCE=1.550
E_alpha= -400.239251  E_beta= -255.797767  E_total= -677.059836 
W_seq=-21.022818

DISTANCE=1.600
E_alpha= -400.239336  E_beta= -255.796729  E_total= -678.702706 
W_seq=-22.666641

DISTANCE=1.650
E_alpha= -400.238946  E_beta= -255.797136  E_total= -679.989675 
W_seq=-23.953593

DISTANCE=1.700
E_alpha= -400.238586  E_beta= -255.797269  E_total= -680.978039 
W_seq=-24.942184

DISTANCE=1.750
E_alpha= -400.238855  E_beta= -255.797006  E_total= -681.717656 
W_seq=-25.681795

DISTANCE=1.800
E_alpha= -400.237943  E_beta= -255.797399  E_total= -682.248581 
W_seq=-26.213239

DISTANCE=1.850
E_alpha= -400.238568  E_beta= -255.797355  E_total= -682.606792 
W_seq=-26.570869

DISTANCE=1.900
E_alpha= -400.238805  E_beta= -255.797391  E_total= -682.817725 
W_seq=-26.781529

DISTANCE=1.950
E_alpha= -400.238523  E_beta= -255.797504  E_total= -682.904420 
W_seq=-26.868393

DISTANCE=2.000
E_alpha= -400.238314  E_beta= -255.797314  E_total= -682.887132 
W_seq=-26.851504

DISTANCE=2.050
E_alpha= -400.238180  E_beta= -255.797424  E_total= -682.784054 
W_seq=-26.748450

DISTANCE=2.100
E_alpha= -400.238202  E_beta= -255.797354  E_total= -682.609171 
W_seq=-26.573615

DISTANCE=2.150
E_alpha= -400.238335  E_beta= -255.797321  E_total= -682.373105 
W_seq=-26.337449

DISTANCE=2.200
E_alpha= -400.238907  E_beta= -255.797084  E_total= -682.084229 
W_seq=-26.048238

DISTANCE=2.250
E_alpha= -400.238512  E_beta= -255.797239  E_total= -681.746053 
W_seq=-25.710302

DISTANCE=2.300
E_alpha= -400.238738  E_beta= -255.797025  E_total= -681.362352 
W_seq=-25.326589

DISTANCE=2.350
E_alpha= -400.238265  E_beta= -255.797484  E_total= -680.936510 
W_seq=-24.900761

DISTANCE=2.400
E_alpha= -400.238254  E_beta= -255.797609  E_total= -680.471796 
W_seq=-24.435933

DISTANCE=2.450
E_alpha= -400.238648  E_beta= -255.797512  E_total= -679.971673 
W_seq=-23.935513

