  67  67   0   0
  0.1686261E+02  0.6309760E-09  0.9464640E-09  0.1891833E-08  0.5000000E-15
  1.000000000000000E-004
  CAR 
 unknown system                          
      4.25821793     -3.77530940  301      2.98684254      1.00000000
     -3.775  0.0000E+00  0.0000E+00
     -3.749  0.0000E+00  0.0000E+00
     -3.722  0.0000E+00  0.0000E+00
     -3.695 -0.3745E-32 -0.1003E-33
     -3.668 -0.2117E-28 -0.5670E-30
     -3.641 -0.6703E-25 -0.1796E-26
     -3.615 -0.1190E-21 -0.3189E-23
     -3.588 -0.1184E-18 -0.3174E-20
     -3.561 -0.6388E-16 -0.1714E-17
     -3.534 -0.1980E-13 -0.5319E-15
     -3.508 -0.3414E-11 -0.9196E-13
     -3.481 -0.3270E-09 -0.8849E-11
     -3.454 -0.1730E-07 -0.4720E-09
     -3.427 -0.5002E-06 -0.1387E-07
     -3.400 -0.7749E-05 -0.2214E-06
     -3.374 -0.6120E-04 -0.1860E-05
     -3.347 -0.2089E-03 -0.7454E-05
     -3.320 -0.6174E-05 -0.7619E-05
     -3.293  0.1805E-02  0.4070E-04
     -3.267  0.4574E-02  0.1632E-03
     -3.240  0.4618E-02  0.2869E-03
     -3.213  0.1577E-02  0.3291E-03
     -3.186 -0.9548E-03  0.3035E-03
     -3.159  0.6556E-03  0.3211E-03
     -3.133  0.1025E-01  0.5955E-03
     -3.106  0.2043E-01  0.1143E-02
     -3.079  0.1623E-01  0.1577E-02
     -3.052  0.3750E-02  0.1677E-02
     -3.026 -0.9161E-03  0.1653E-02
     -2.999  0.6929E-02  0.1838E-02
     -2.972  0.1935E-01  0.2357E-02
     -2.945  0.1876E-01  0.2859E-02
     -2.918  0.6564E-02  0.3035E-02
     -2.892 -0.1399E-03  0.3031E-02
     -2.865  0.8731E-03  0.3055E-02
     -2.838  0.2385E-02  0.3118E-02
     -2.811  0.1172E-02  0.3150E-02
     -2.785 -0.4860E-04  0.3149E-02
     -2.758  0.3005E-02  0.3229E-02
     -2.731  0.8937E-02  0.3468E-02
     -2.704  0.1165E-01  0.3780E-02
     -2.677  0.1612E-01  0.4212E-02
     -2.651  0.2693E-01  0.4933E-02
     -2.624  0.2747E-01  0.5669E-02
     -2.597  0.1371E-01  0.6036E-02
     -2.570  0.6603E-02  0.6213E-02
     -2.544  0.9589E-02  0.6469E-02
     -2.517  0.9185E-02  0.6715E-02
     -2.490  0.5712E-02  0.6868E-02
     -2.463  0.7418E-02  0.7067E-02
     -2.436  0.1149E-01  0.7375E-02
     -2.410  0.1682E-01  0.7825E-02
     -2.383  0.2337E-01  0.8451E-02
     -2.356  0.2040E-01  0.8997E-02
     -2.329  0.9645E-02  0.9255E-02
     -2.302  0.2178E-02  0.9313E-02
     -2.276 -0.9225E-03  0.9289E-02
     -2.249  0.1925E-02  0.9340E-02
     -2.222  0.1572E-01  0.9761E-02
     -2.195  0.2958E-01  0.1055E-01
     -2.169  0.2654E-01  0.1126E-01
     -2.142  0.1404E-01  0.1164E-01
     -2.115  0.6894E-02  0.1182E-01
     -2.088  0.4001E-02  0.1193E-01
     -2.061  0.1868E-02  0.1198E-01
     -2.035  0.5659E-02  0.1213E-01
     -2.008  0.1465E-01  0.1253E-01
     -1.981  0.2136E-01  0.1310E-01
     -1.954  0.2572E-01  0.1379E-01
     -1.928  0.2613E-01  0.1449E-01
     -1.901  0.1984E-01  0.1502E-01
     -1.874  0.1297E-01  0.1536E-01
     -1.847  0.1603E-01  0.1579E-01
     -1.820  0.2305E-01  0.1641E-01
     -1.794  0.2006E-01  0.1695E-01
     -1.767  0.1691E-01  0.1740E-01
     -1.740  0.2390E-01  0.1804E-01
     -1.713  0.2635E-01  0.1875E-01
     -1.687  0.1954E-01  0.1927E-01
     -1.660  0.1934E-01  0.1979E-01
     -1.633  0.2321E-01  0.2041E-01
     -1.606  0.1897E-01  0.2092E-01
     -1.579  0.1504E-01  0.2132E-01
     -1.553  0.1687E-01  0.2177E-01
     -1.526  0.1750E-01  0.2224E-01
     -1.499  0.1577E-01  0.2266E-01
     -1.472  0.1221E-01  0.2299E-01
     -1.446  0.1277E-01  0.2333E-01
     -1.419  0.2405E-01  0.2398E-01
     -1.392  0.3325E-01  0.2487E-01
     -1.365  0.3237E-01  0.2573E-01
     -1.338  0.2244E-01  0.2633E-01
     -1.312  0.9348E-02  0.2658E-01
     -1.285  0.6165E-02  0.2675E-01
     -1.258  0.1424E-01  0.2713E-01
     -1.231  0.2803E-01  0.2788E-01
     -1.205  0.4119E-01  0.2898E-01
     -1.178  0.4632E-01  0.3022E-01
     -1.151  0.3830E-01  0.3125E-01
     -1.124  0.2591E-01  0.3194E-01
     -1.097  0.2268E-01  0.3255E-01
     -1.071  0.2871E-01  0.3332E-01
     -1.044  0.3658E-01  0.3430E-01
     -1.017  0.3769E-01  0.3531E-01
     -0.990  0.3165E-01  0.3616E-01
     -0.964  0.3350E-01  0.3705E-01
     -0.937  0.4211E-01  0.3818E-01
     -0.910  0.4052E-01  0.3927E-01
     -0.883  0.3082E-01  0.4009E-01
     -0.856  0.2172E-01  0.4067E-01
     -0.830  0.1687E-01  0.4113E-01
     -0.803  0.1364E-01  0.4149E-01
     -0.776  0.1199E-01  0.4181E-01
     -0.749  0.2002E-01  0.4235E-01
     -0.723  0.3870E-01  0.4338E-01
     -0.696  0.5127E-01  0.4476E-01
     -0.669  0.4674E-01  0.4601E-01
     -0.642  0.3775E-01  0.4702E-01
     -0.615  0.3596E-01  0.4798E-01
     -0.589  0.4026E-01  0.4906E-01
     -0.562  0.4820E-01  0.5035E-01
     -0.535  0.5032E-01  0.5170E-01
     -0.508  0.3716E-01  0.5269E-01
     -0.482  0.2249E-01  0.5330E-01
     -0.455  0.2525E-01  0.5397E-01
     -0.428  0.4683E-01  0.5523E-01
     -0.401  0.5974E-01  0.5683E-01
     -0.374  0.4230E-01  0.5796E-01
     -0.348  0.2080E-01  0.5852E-01
     -0.321  0.2425E-01  0.5917E-01
     -0.294  0.4193E-01  0.6029E-01
     -0.267  0.5304E-01  0.6171E-01
     -0.241  0.4708E-01  0.6297E-01
     -0.214  0.3365E-01  0.6387E-01
     -0.187  0.3780E-01  0.6488E-01
     -0.160  0.5243E-01  0.6629E-01
     -0.133  0.5391E-01  0.6773E-01
     -0.107  0.5109E-01  0.6910E-01
     -0.080  0.5630E-01  0.7061E-01
     -0.053  0.6495E-01  0.7235E-01
     -0.026  0.7263E-01  0.7429E-01
      0.000  0.7359E-01  0.7626E-01
      0.027  0.6921E-01  0.7811E-01
      0.054  0.6594E-01  0.7988E-01
      0.081  0.6397E-01  0.8159E-01
      0.108  0.6287E-01  0.8328E-01
      0.134  0.7123E-01  0.8518E-01
      0.161  0.8709E-01  0.8752E-01
      0.188  0.8556E-01  0.8981E-01
      0.215  0.6523E-01  0.9155E-01
      0.241  0.5727E-01  0.9309E-01
      0.268  0.6840E-01  0.9492E-01
      0.295  0.7119E-01  0.9683E-01
      0.322  0.6333E-01  0.9852E-01
      0.349  0.6904E-01  0.1004E+00
      0.375  0.9415E-01  0.1029E+00
      0.402  0.1221E+00  0.1062E+00
      0.429  0.1472E+00  0.1101E+00
      0.456  0.1734E+00  0.1147E+00
      0.482  0.1833E+00  0.1197E+00
      0.509  0.1659E+00  0.1241E+00
      0.536  0.1455E+00  0.1280E+00
      0.563  0.1349E+00  0.1316E+00
      0.590  0.1301E+00  0.1351E+00
      0.616  0.1278E+00  0.1385E+00
      0.643  0.1290E+00  0.1420E+00
      0.670  0.1422E+00  0.1458E+00
      0.697  0.1594E+00  0.1500E+00
      0.723  0.1683E+00  0.1545E+00
      0.750  0.1742E+00  0.1592E+00
      0.777  0.1756E+00  0.1639E+00
      0.804  0.1691E+00  0.1684E+00
      0.831  0.1742E+00  0.1731E+00
      0.857  0.1913E+00  0.1782E+00
      0.884  0.1894E+00  0.1833E+00
      0.911  0.1721E+00  0.1879E+00
      0.938  0.1702E+00  0.1925E+00
      0.964  0.1966E+00  0.1977E+00
      0.991  0.2314E+00  0.2039E+00
      1.018  0.2382E+00  0.2103E+00
      1.045  0.2277E+00  0.2164E+00
      1.072  0.2287E+00  0.2225E+00
      1.098  0.2279E+00  0.2286E+00
      1.125  0.2205E+00  0.2345E+00
      1.152  0.2096E+00  0.2402E+00
      1.179  0.1840E+00  0.2451E+00
      1.205  0.1625E+00  0.2494E+00
      1.232  0.1673E+00  0.2539E+00
      1.259  0.1941E+00  0.2591E+00
      1.286  0.2265E+00  0.2652E+00
      1.313  0.2419E+00  0.2717E+00
      1.339  0.2395E+00  0.2781E+00
      1.366  0.2264E+00  0.2841E+00
      1.393  0.2101E+00  0.2898E+00
      1.420  0.2057E+00  0.2953E+00
      1.446  0.1983E+00  0.3006E+00
      1.473  0.1814E+00  0.3054E+00
      1.500  0.1804E+00  0.3103E+00
      1.527  0.1914E+00  0.3154E+00
      1.554  0.1948E+00  0.3206E+00
      1.580  0.1816E+00  0.3255E+00
      1.607  0.1645E+00  0.3299E+00
      1.634  0.1697E+00  0.3344E+00
      1.661  0.1821E+00  0.3393E+00
      1.687  0.1827E+00  0.3442E+00
      1.714  0.1707E+00  0.3488E+00
      1.741  0.1517E+00  0.3528E+00
      1.768  0.1504E+00  0.3568E+00
      1.795  0.1667E+00  0.3613E+00
      1.821  0.1768E+00  0.3660E+00
      1.848  0.1772E+00  0.3708E+00
      1.875  0.1735E+00  0.3754E+00
      1.902  0.1691E+00  0.3800E+00
      1.928  0.1664E+00  0.3844E+00
      1.955  0.1644E+00  0.3888E+00
      1.982  0.1679E+00  0.3933E+00
      2.009  0.1756E+00  0.3980E+00
      2.036  0.1887E+00  0.4031E+00
      2.062  0.2033E+00  0.4085E+00
      2.089  0.2081E+00  0.4141E+00
      2.116  0.2106E+00  0.4197E+00
      2.143  0.2133E+00  0.4254E+00
      2.170  0.2108E+00  0.4311E+00
      2.196  0.2094E+00  0.4367E+00
      2.223  0.2142E+00  0.4424E+00
      2.250  0.2261E+00  0.4485E+00
      2.277  0.2462E+00  0.4551E+00
      2.303  0.2656E+00  0.4622E+00
      2.330  0.2813E+00  0.4697E+00
      2.357  0.2923E+00  0.4776E+00
      2.384  0.2982E+00  0.4855E+00
      2.411  0.3123E+00  0.4939E+00
      2.437  0.3304E+00  0.5027E+00
      2.464  0.3411E+00  0.5119E+00
      2.491  0.3329E+00  0.5208E+00
      2.518  0.3013E+00  0.5289E+00
      2.544  0.2716E+00  0.5361E+00
      2.571  0.2588E+00  0.5431E+00
      2.598  0.2572E+00  0.5500E+00
      2.625  0.2723E+00  0.5572E+00
      2.652  0.2948E+00  0.5651E+00
      2.678  0.3032E+00  0.5733E+00
      2.705  0.3047E+00  0.5814E+00
      2.732  0.3052E+00  0.5896E+00
      2.759  0.2975E+00  0.5976E+00
      2.785  0.2942E+00  0.6054E+00
      2.812  0.3036E+00  0.6136E+00
      2.839  0.3113E+00  0.6219E+00
      2.866  0.3108E+00  0.6302E+00
      2.893  0.3096E+00  0.6385E+00
      2.919  0.3093E+00  0.6468E+00
      2.946  0.3040E+00  0.6549E+00
      2.973  0.3059E+00  0.6631E+00
      3.000  0.3118E+00  0.6715E+00
      3.026  0.2961E+00  0.6794E+00
      3.053  0.2718E+00  0.6867E+00
      3.080  0.2604E+00  0.6937E+00
      3.107  0.2621E+00  0.7007E+00
      3.134  0.2726E+00  0.7080E+00
      3.160  0.2830E+00  0.7156E+00
      3.187  0.2914E+00  0.7234E+00
      3.214  0.3008E+00  0.7314E+00
      3.241  0.3088E+00  0.7397E+00
      3.267  0.3136E+00  0.7481E+00
      3.294  0.3111E+00  0.7564E+00
      3.321  0.3073E+00  0.7646E+00
      3.348  0.3036E+00  0.7728E+00
      3.375  0.2905E+00  0.7806E+00
      3.401  0.2782E+00  0.7880E+00
      3.428  0.2682E+00  0.7952E+00
      3.455  0.2325E+00  0.8014E+00
      3.482  0.1807E+00  0.8063E+00
      3.508  0.1545E+00  0.8104E+00
      3.535  0.1555E+00  0.8146E+00
      3.562  0.1656E+00  0.8190E+00
      3.589  0.1715E+00  0.8236E+00
      3.616  0.1538E+00  0.8277E+00
      3.642  0.1087E+00  0.8306E+00
      3.669  0.6510E-01  0.8324E+00
      3.696  0.4293E-01  0.8335E+00
      3.723  0.3133E-01  0.8343E+00
      3.749  0.1819E-01  0.8348E+00
      3.776  0.6564E-02  0.8350E+00
      3.803  0.7223E-03  0.8350E+00
      3.830 -0.6217E-03  0.8350E+00
      3.857 -0.3506E-03  0.8350E+00
      3.883 -0.7955E-04  0.8350E+00
      3.910 -0.9157E-05  0.8350E+00
      3.937 -0.5635E-06  0.8350E+00
      3.964 -0.1893E-07  0.8350E+00
      3.990 -0.3507E-09  0.8350E+00
      4.017 -0.3607E-11  0.8350E+00
      4.044 -0.2067E-13  0.8350E+00
      4.071 -0.6634E-16  0.8350E+00
      4.098  0.0000E+00  0.8350E+00
      4.124  0.0000E+00  0.8350E+00
      4.151  0.0000E+00  0.8350E+00
      4.178  0.0000E+00  0.8350E+00
      4.205  0.0000E+00  0.8350E+00
      4.231  0.0000E+00  0.8350E+00
      4.258  0.0000E+00  0.8350E+00
