   67   67  400    1
  0.1686261E+02  0.6309760E-09  0.9464640E-09  0.1891833E-08  0.5000000E-15
  1.000000000000000E-004
  CAR 
 unknown system                          
    267     12    167
 
  0.0000000E+00  0.0000000E+00  0.0000000E+00  0.3333333E-01
    1       -3.275309   1.000000
    2       -2.692883   1.000000
    3       -2.572026   1.000000
    4       -1.759882   1.000000
    5       -1.271510   1.000000
    6       -1.166269   1.000000
    7       -1.117205   1.000000
    8       -0.920353   1.000000
    9       -0.912862   1.000000
   10       -0.854161   1.000000
   11       -0.744146   1.000000
   12       -0.230520   1.000000
   13       -0.055082   1.000000
   14       -0.004625   1.000000
   15        0.036004   1.000000
   16        0.224347   1.000000
   17        0.255876   1.000000
   18        0.265406   1.000000
   19        0.280426   1.000000
   20        0.321058   1.000000
   21        0.379226   1.000000
   22        0.418225   1.000000
   23        0.482389   1.000000
   24        0.492710   1.000000
   25        0.506883   1.000000
   26        0.541364   1.000000
   27        0.549919   1.000000
   28        0.554994   1.000000
   29        0.563919   1.000000
   30        0.565009   1.000000
   31        0.596358   1.000000
   32        0.620165   1.000000
   33        0.650783   1.000000
   34        0.662373   1.000000
   35        0.688008   1.000000
   36        0.695151   1.000000
   37        0.709237   1.000000
   38        0.736185   1.000000
   39        0.739227   1.000000
   40        0.781958   1.000000
   41        0.786133   1.000000
   42        0.814437   1.000000
   43        0.865413   1.000000
   44        0.908630   1.000000
   45        0.911594   1.000000
   46        0.960337   1.000000
   47        0.985395   1.000000
   48        0.997148   1.000000
   49        1.017241   1.000000
   50        1.045628   1.000000
   51        1.059001   1.000000
   52        1.089334   1.000000
   53        1.129240   1.000000
   54        1.189936   1.000000
   55        1.233153   1.000000
   56        1.253384   1.000000
   57        1.260277   1.000000
   58        1.273812   1.000000
   59        1.304120   1.000000
   60        1.386269   1.000000
   61        1.391520   1.000000
   62        1.403653   1.000000
   63        1.418448   1.000000
   64        1.509587   1.000000
   65        1.522674   1.000000
   66        1.539458   1.000000
   67        1.548701   1.000000
   68        1.603735   1.000000
   69        1.637906   1.000000
   70        1.686133   1.000000
   71        1.697731   1.000000
   72        1.751992   1.000000
   73        1.759908   1.000000
   74        1.809258   1.000000
   75        1.831964   1.000000
   76        1.871798   1.000000
   77        1.880880   1.000000
   78        1.913671   1.000000
   79        1.950213   1.000000
   80        1.982508   1.000000
   81        2.048152   1.000000
   82        2.072727   1.000000
   83        2.107386   1.000000
   84        2.182432   1.000000
   85        2.204233   1.000000
   86        2.265129   1.000000
   87        2.271906   1.000000
   88        2.280166   1.000000
   89        2.315299   1.000000
   90        2.346282   1.000000
   91        2.350262   1.000000
   92        2.355881   1.000000
   93        2.371114   1.000000
   94        2.373222   1.000000
   95        2.426021   1.000000
   96        2.426367   1.000000
   97        2.459465   1.000000
   98        2.460228   1.000000
   99        2.465281   1.000000
  100        2.479397   1.000000
  101        2.481776   1.000000
  102        2.487729   1.000000
  103        2.515445   1.000000
  104        2.558439   1.000000
  105        2.564488   1.000000
  106        2.626884   1.000000
  107        2.635196   1.000000
  108        2.635360   1.000000
  109        2.677705   1.000000
  110        2.680948   1.000000
  111        2.691216   1.000000
  112        2.707158   1.000000
  113        2.727140   1.000000
  114        2.778308   1.000000
  115        2.779537   1.000000
  116        2.788932   1.000000
  117        2.790911   1.000000
  118        2.801970   1.000001
  119        2.820532   1.000013
  120        2.831133   1.000049
  121        2.858793   1.000878
  122        2.885713   1.007427
  123        2.910102   1.026076
  124        2.920897   1.034260
  125        2.950315   0.970089
  126        2.952297   0.956659
  127        2.958071   0.908688
  128        2.974476   0.702373
  129        3.006377   0.195683
  130        3.010252   0.147874
  131        3.023096   0.031676
  132        3.055654  -0.032605
  133        3.057721  -0.031112
  134        3.084439  -0.009309
  135        3.095429  -0.004416
  136        3.133674  -0.000133
  137        3.142003  -0.000052
  138        3.146972  -0.000029
  139        3.169135  -0.000002
  140        3.206896  -0.000000
  141        3.218164  -0.000000
  142        3.221969  -0.000000
  143        3.255554  -0.000000
  144        3.266525  -0.000000
  145        3.301009  -0.000000
  146        3.303091  -0.000000
  147        3.339134  -0.000000
  148        3.339609  -0.000000
  149        3.348292  -0.000000
  150        3.353177  -0.000000
  151        3.374782  -0.000000
  152        3.395210  -0.000000
  153        3.418799  -0.000000
  154        3.420761  -0.000000
  155        3.429747  -0.000000
  156        3.483452  -0.000000
  157        3.497553  -0.000000
  158        3.511457  -0.000000
  159        3.539466  -0.000000
  160        3.547543  -0.000000
  161        3.567459  -0.000000
  162        3.579463  -0.000000
  163        3.647142  -0.000000
  164        3.687994  -0.000000
  165        3.719511  -0.000000
  166        3.726116  -0.000000
  167        3.758218  -0.000000
 
  0.2000000E+00  0.0000000E+00  0.0000000E+00  0.6666667E-01
    1       -3.117919   1.000000
    2       -2.531507   1.000000
    3       -2.403280   1.000000
    4       -1.657442   1.000000
    5       -1.125755   1.000000
    6       -1.024160   1.000000
    7       -0.977013   1.000000
    8       -0.806343   1.000000
    9       -0.774498   1.000000
   10       -0.719381   1.000000
   11       -0.604371   1.000000
   12       -0.550918   1.000000
   13       -0.312247   1.000000
   14       -0.275603   1.000000
   15       -0.005598   1.000000
   16        0.087843   1.000000
   17        0.124800   1.000000
   18        0.175631   1.000000
   19        0.180256   1.000000
   20        0.220287   1.000000
   21        0.261019   1.000000
   22        0.308169   1.000000
   23        0.372437   1.000000
   24        0.439256   1.000000
   25        0.477144   1.000000
   26        0.499388   1.000000
   27        0.545354   1.000000
   28        0.595554   1.000000
   29        0.609553   1.000000
   30        0.629804   1.000000
   31        0.678725   1.000000
   32        0.692746   1.000000
   33        0.715415   1.000000
   34        0.745722   1.000000
   35        0.782521   1.000000
   36        0.792699   1.000000
   37        0.801801   1.000000
   38        0.819784   1.000000
   39        0.880946   1.000000
   40        0.909716   1.000000
   41        0.937572   1.000000
   42        0.947583   1.000000
   43        0.975163   1.000000
   44        0.994288   1.000000
   45        1.015613   1.000000
   46        1.038677   1.000000
   47        1.050148   1.000000
   48        1.102462   1.000000
   49        1.141821   1.000000
   50        1.151802   1.000000
   51        1.211479   1.000000
   52        1.225793   1.000000
   53        1.276942   1.000000
   54        1.290883   1.000000
   55        1.315292   1.000000
   56        1.326587   1.000000
   57        1.340936   1.000000
   58        1.346068   1.000000
   59        1.377488   1.000000
   60        1.419103   1.000000
   61        1.446459   1.000000
   62        1.501513   1.000000
   63        1.541621   1.000000
   64        1.555263   1.000000
   65        1.577318   1.000000
   66        1.611424   1.000000
   67        1.612922   1.000000
   68        1.651642   1.000000
   69        1.673532   1.000000
   70        1.684927   1.000000
   71        1.715070   1.000000
   72        1.743555   1.000000
   73        1.841533   1.000000
   74        1.859159   1.000000
   75        1.876695   1.000000
   76        1.889765   1.000000
   77        1.912987   1.000000
   78        1.940182   1.000000
   79        1.981750   1.000000
   80        1.997072   1.000000
   81        2.045753   1.000000
   82        2.095168   1.000000
   83        2.128330   1.000000
   84        2.152279   1.000000
   85        2.190322   1.000000
   86        2.205009   1.000000
   87        2.226680   1.000000
   88        2.254914   1.000000
   89        2.259537   1.000000
   90        2.284159   1.000000
   91        2.332830   1.000000
   92        2.346062   1.000000
   93        2.363234   1.000000
   94        2.373946   1.000000
   95        2.395284   1.000000
   96        2.408546   1.000000
   97        2.418352   1.000000
   98        2.431480   1.000000
   99        2.445856   1.000000
  100        2.461330   1.000000
  101        2.468888   1.000000
  102        2.483336   1.000000
  103        2.499077   1.000000
  104        2.505085   1.000000
  105        2.535743   1.000000
  106        2.554608   1.000000
  107        2.569191   1.000000
  108        2.586225   1.000000
  109        2.607190   1.000000
  110        2.607728   1.000000
  111        2.629959   1.000000
  112        2.654231   1.000000
  113        2.670579   1.000000
  114        2.702296   1.000000
  115        2.705546   1.000000
  116        2.729348   1.000000
  117        2.731694   1.000000
  118        2.741790   1.000000
  119        2.760477   1.000000
  120        2.777033   1.000000
  121        2.808189   1.000003
  122        2.827979   1.000033
  123        2.844496   1.000214
  124        2.851019   1.000417
  125        2.863638   1.001357
  126        2.884453   1.006830
  127        2.892360   1.011231
  128        2.902774   1.019366
  129        2.924629   1.035401
  130        2.946343   0.992560
  131        2.955869   0.928561
  132        2.976051   0.678020
  133        2.985490   0.522888
  134        3.002127   0.254220
  135        3.024975   0.020135
  136        3.062686  -0.026893
  137        3.071744  -0.018634
  138        3.075577  -0.015423
  139        3.105644  -0.001979
  140        3.122613  -0.000419
  141        3.148555  -0.000024
  142        3.158715  -0.000007
  143        3.174434  -0.000001
  144        3.184810  -0.000000
  145        3.191094  -0.000000
  146        3.204097  -0.000000
  147        3.217029  -0.000000
  148        3.252476  -0.000000
  149        3.256959  -0.000000
  150        3.264342  -0.000000
  151        3.286049  -0.000000
  152        3.296682  -0.000000
  153        3.302556  -0.000000
  154        3.331134  -0.000000
  155        3.350556  -0.000000
  156        3.373941  -0.000000
  157        3.419674  -0.000000
  158        3.432790  -0.000000
  159        3.461103  -0.000000
  160        3.482244  -0.000000
  161        3.492186  -0.000000
  162        3.519205  -0.000000
  163        3.537439  -0.000000
  164        3.586925  -0.000000
  165        3.606877  -0.000000
  166        3.611177  -0.000000
  167        3.658753  -0.000000
 
  0.4000000E+00  0.0000000E+00  0.0000000E+00  0.6666667E-01
    1       -2.733860   1.000000
    2       -2.108923   1.000000
    3       -1.920190   1.000000
    4       -1.617098   1.000000
    5       -1.293774   1.000000
    6       -1.176548   1.000000
    7       -0.907539   1.000000
    8       -0.733122   1.000000
    9       -0.639560   1.000000
   10       -0.595133   1.000000
   11       -0.443499   1.000000
   12       -0.397213   1.000000
   13       -0.354570   1.000000
   14       -0.265374   1.000000
   15       -0.216271   1.000000
   16       -0.161331   1.000000
   17       -0.137319   1.000000
   18       -0.093869   1.000000
   19        0.078412   1.000000
   20        0.125182   1.000000
   21        0.173309   1.000000
   22        0.262581   1.000000
   23        0.417021   1.000000
   24        0.458114   1.000000
   25        0.487291   1.000000
   26        0.530747   1.000000
   27        0.618732   1.000000
   28        0.666356   1.000000
   29        0.692426   1.000000
   30        0.762862   1.000000
   31        0.769532   1.000000
   32        0.828941   1.000000
   33        0.840644   1.000000
   34        0.856302   1.000000
   35        0.907082   1.000000
   36        0.948560   1.000000
   37        0.988755   1.000000
   38        1.003267   1.000000
   39        1.040923   1.000000
   40        1.075742   1.000000
   41        1.086475   1.000000
   42        1.122783   1.000000
   43        1.160103   1.000000
   44        1.196769   1.000000
   45        1.209034   1.000000
   46        1.255056   1.000000
   47        1.268491   1.000000
   48        1.292020   1.000000
   49        1.305745   1.000000
   50        1.321214   1.000000
   51        1.334152   1.000000
   52        1.362372   1.000000
   53        1.388885   1.000000
   54        1.403317   1.000000
   55        1.415849   1.000000
   56        1.436204   1.000000
   57        1.466600   1.000000
   58        1.482841   1.000000
   59        1.506678   1.000000
   60        1.510471   1.000000
   61        1.540434   1.000000
   62        1.566873   1.000000
   63        1.578292   1.000000
   64        1.594592   1.000000
   65        1.606592   1.000000
   66        1.638643   1.000000
   67        1.650302   1.000000
   68        1.680120   1.000000
   69        1.701926   1.000000
   70        1.718852   1.000000
   71        1.755758   1.000000
   72        1.815178   1.000000
   73        1.840270   1.000000
   74        1.864201   1.000000
   75        1.904676   1.000000
   76        1.956716   1.000000
   77        1.966507   1.000000
   78        2.038236   1.000000
   79        2.043352   1.000000
   80        2.056664   1.000000
   81        2.085609   1.000000
   82        2.113397   1.000000
   83        2.135955   1.000000
   84        2.145478   1.000000
   85        2.170136   1.000000
   86        2.179437   1.000000
   87        2.193666   1.000000
   88        2.227424   1.000000
   89        2.233873   1.000000
   90        2.248390   1.000000
   91        2.256498   1.000000
   92        2.272487   1.000000
   93        2.291754   1.000000
   94        2.294816   1.000000
   95        2.320880   1.000000
   96        2.336330   1.000000
   97        2.346249   1.000000
   98        2.359299   1.000000
   99        2.361589   1.000000
  100        2.396493   1.000000
  101        2.411063   1.000000
  102        2.423895   1.000000
  103        2.439556   1.000000
  104        2.449274   1.000000
  105        2.459484   1.000000
  106        2.473309   1.000000
  107        2.489384   1.000000
  108        2.501425   1.000000
  109        2.514009   1.000000
  110        2.540666   1.000000
  111        2.550202   1.000000
  112        2.563988   1.000000
  113        2.565764   1.000000
  114        2.573403   1.000000
  115        2.591522   1.000000
  116        2.610665   1.000000
  117        2.645046   1.000000
  118        2.651292   1.000000
  119        2.659985   1.000000
  120        2.668476   1.000000
  121        2.704280   1.000000
  122        2.709802   1.000000
  123        2.733040   1.000000
  124        2.748535   1.000000
  125        2.761108   1.000000
  126        2.781266   1.000000
  127        2.802457   1.000001
  128        2.813866   1.000006
  129        2.825705   1.000025
  130        2.842244   1.000169
  131        2.854368   1.000579
  132        2.870602   1.002443
  133        2.883270   1.006303
  134        2.896472   1.014148
  135        2.907946   1.024088
  136        2.915396   1.030667
  137        2.935293   1.028052
  138        2.949197   0.977000
  139        2.962719   0.860318
  140        2.964786   0.836075
  141        2.983774   0.551829
  142        2.987971   0.480911
  143        2.999259   0.296866
  144        3.022587   0.035037
  145        3.040406  -0.031030
  146        3.071666  -0.018701
  147        3.084486  -0.009282
  148        3.118767  -0.000610
  149        3.125554  -0.000312
  150        3.147170  -0.000028
  151        3.159596  -0.000006
  152        3.179229  -0.000000
  153        3.195318  -0.000000
  154        3.206201  -0.000000
  155        3.225397  -0.000000
  156        3.259662  -0.000000
  157        3.261569  -0.000000
  158        3.270347  -0.000000
  159        3.294891  -0.000000
  160        3.299543  -0.000000
  161        3.315764  -0.000000
  162        3.327088  -0.000000
  163        3.353837  -0.000000
  164        3.380889  -0.000000
  165        3.389357  -0.000000
  166        3.411793  -0.000000
  167        3.438689  -0.000000
 
  0.0000000E+00  0.3333333E+00  0.0000000E+00  0.6666667E-01
    1       -3.120233   1.000000
    2       -2.552128   1.000000
    3       -2.376551   1.000000
    4       -2.183190   1.000000
    5       -1.798442   1.000000
    6       -1.726291   1.000000
    7       -1.186121   1.000000
    8       -1.027790   1.000000
    9       -0.698818   1.000000
   10       -0.559285   1.000000
   11       -0.320984   1.000000
   12       -0.042085   1.000000
   13        0.011761   1.000000
   14        0.180439   1.000000
   15        0.273985   1.000000
   16        0.304970   1.000000
   17        0.368730   1.000000
   18        0.370099   1.000000
   19        0.408585   1.000000
   20        0.425053   1.000000
   21        0.448328   1.000000
   22        0.461915   1.000000
   23        0.476429   1.000000
   24        0.480385   1.000000
   25        0.501320   1.000000
   26        0.519469   1.000000
   27        0.533532   1.000000
   28        0.544845   1.000000
   29        0.569653   1.000000
   30        0.582724   1.000000
   31        0.593225   1.000000
   32        0.628419   1.000000
   33        0.646068   1.000000
   34        0.659468   1.000000
   35        0.690429   1.000000
   36        0.705518   1.000000
   37        0.726728   1.000000
   38        0.735431   1.000000
   39        0.768579   1.000000
   40        0.819673   1.000000
   41        0.832663   1.000000
   42        0.845381   1.000000
   43        0.870514   1.000000
   44        0.913244   1.000000
   45        0.941860   1.000000
   46        0.946474   1.000000
   47        0.979905   1.000000
   48        0.995946   1.000000
   49        1.012993   1.000000
   50        1.032582   1.000000
   51        1.043116   1.000000
   52        1.066355   1.000000
   53        1.080544   1.000000
   54        1.102679   1.000000
   55        1.115080   1.000000
   56        1.123238   1.000000
   57        1.144542   1.000000
   58        1.207205   1.000000
   59        1.245082   1.000000
   60        1.293046   1.000000
   61        1.299910   1.000000
   62        1.349913   1.000000
   63        1.395659   1.000000
   64        1.435153   1.000000
   65        1.458724   1.000000
   66        1.510194   1.000000
   67        1.567351   1.000000
   68        1.633099   1.000000
   69        1.647697   1.000000
   70        1.700783   1.000000
   71        1.723417   1.000000
   72        1.758195   1.000000
   73        1.770070   1.000000
   74        1.823117   1.000000
   75        1.846568   1.000000
   76        1.909165   1.000000
   77        1.919841   1.000000
   78        1.993644   1.000000
   79        2.018892   1.000000
   80        2.050767   1.000000
   81        2.055158   1.000000
   82        2.091552   1.000000
   83        2.095959   1.000000
   84        2.134752   1.000000
   85        2.157607   1.000000
   86        2.180271   1.000000
   87        2.195987   1.000000
   88        2.216061   1.000000
   89        2.268783   1.000000
   90        2.278874   1.000000
   91        2.301201   1.000000
   92        2.307344   1.000000
   93        2.309610   1.000000
   94        2.325984   1.000000
   95        2.346265   1.000000
   96        2.380270   1.000000
   97        2.400274   1.000000
   98        2.422782   1.000000
   99        2.427709   1.000000
  100        2.452200   1.000000
  101        2.469180   1.000000
  102        2.498634   1.000000
  103        2.501904   1.000000
  104        2.504417   1.000000
  105        2.517280   1.000000
  106        2.535754   1.000000
  107        2.553239   1.000000
  108        2.580035   1.000000
  109        2.616224   1.000000
  110        2.634836   1.000000
  111        2.640529   1.000000
  112        2.654074   1.000000
  113        2.670200   1.000000
  114        2.685255   1.000000
  115        2.725105   1.000000
  116        2.738083   1.000000
  117        2.743842   1.000000
  118        2.789667   1.000000
  119        2.805485   1.000002
  120        2.824037   1.000021
  121        2.844261   1.000209
  122        2.859847   1.000967
  123        2.872957   1.002949
  124        2.895054   1.013094
  125        2.925254   1.035450
  126        2.929366   1.034494
  127        2.952531   0.954974
  128        2.965898   0.822360
  129        2.986021   0.513896
  130        3.031509  -0.010226
  131        3.032511  -0.013646
  132        3.094301  -0.004795
  133        3.098134  -0.003606
  134        3.123581  -0.000381
  135        3.143933  -0.000041
  136        3.179445  -0.000000
  137        3.198583  -0.000000
  138        3.210880  -0.000000
  139        3.213062  -0.000000
  140        3.257865  -0.000000
  141        3.260344  -0.000000
  142        3.297385  -0.000000
  143        3.315440  -0.000000
  144        3.320473  -0.000000
  145        3.358237  -0.000000
  146        3.365100  -0.000000
  147        3.394236  -0.000000
  148        3.399530  -0.000000
  149        3.414148  -0.000000
  150        3.430768  -0.000000
  151        3.453286  -0.000000
  152        3.463237  -0.000000
  153        3.490037  -0.000000
  154        3.499763  -0.000000
  155        3.517772  -0.000000
  156        3.518775  -0.000000
  157        3.547216  -0.000000
  158        3.550957  -0.000000
  159        3.571878  -0.000000
  160        3.585766  -0.000000
  161        3.590746  -0.000000
  162        3.617854  -0.000000
  163        3.625382  -0.000000
  164        3.642521  -0.000000
  165        3.653541  -0.000000
  166        3.679705  -0.000000
  167        3.700783  -0.000000
 
  0.2000000E+00  0.3333333E+00  0.0000000E+00  0.1333333E+00
    1       -2.977243   1.000000
    2       -2.394238   1.000000
    3       -2.207925   1.000000
    4       -2.016118   1.000000
    5       -1.643705   1.000000
    6       -1.575218   1.000000
    7       -1.085998   1.000000
    8       -0.885306   1.000000
    9       -0.640682   1.000000
   10       -0.429992   1.000000
   11       -0.401738   1.000000
   12       -0.243865   1.000000
   13       -0.175395   1.000000
   14       -0.076599   1.000000
   15       -0.033229   1.000000
   16        0.109031   1.000000
   17        0.139817   1.000000
   18        0.162525   1.000000
   19        0.248678   1.000000
   20        0.352471   1.000000
   21        0.379389   1.000000
   22        0.404212   1.000000
   23        0.433434   1.000000
   24        0.449274   1.000000
   25        0.480030   1.000000
   26        0.517138   1.000000
   27        0.562390   1.000000
   28        0.586839   1.000000
   29        0.627115   1.000000
   30        0.667875   1.000000
   31        0.689696   1.000000
   32        0.711541   1.000000
   33        0.739572   1.000000
   34        0.746488   1.000000
   35        0.776561   1.000000
   36        0.807396   1.000000
   37        0.844017   1.000000
   38        0.862677   1.000000
   39        0.881684   1.000000
   40        0.916762   1.000000
   41        0.955752   1.000000
   42        0.988537   1.000000
   43        1.004474   1.000000
   44        1.020942   1.000000
   45        1.040659   1.000000
   46        1.053769   1.000000
   47        1.080347   1.000000
   48        1.085636   1.000000
   49        1.120323   1.000000
   50        1.133125   1.000000
   51        1.158037   1.000000
   52        1.166984   1.000000
   53        1.182468   1.000000
   54        1.207762   1.000000
   55        1.248117   1.000000
   56        1.280912   1.000000
   57        1.300553   1.000000
   58        1.318664   1.000000
   59        1.336544   1.000000
   60        1.355825   1.000000
   61        1.408464   1.000000
   62        1.449618   1.000000
   63        1.485830   1.000000
   64        1.518062   1.000000
   65        1.527870   1.000000
   66        1.562001   1.000000
   67        1.629982   1.000000
   68        1.660457   1.000000
   69        1.690413   1.000000
   70        1.741249   1.000000
   71        1.775376   1.000000
   72        1.793245   1.000000
   73        1.811504   1.000000
   74        1.842251   1.000000
   75        1.877336   1.000000
   76        1.898414   1.000000
   77        1.924312   1.000000
   78        1.956601   1.000000
   79        1.982782   1.000000
   80        2.006930   1.000000
   81        2.024040   1.000000
   82        2.051897   1.000000
   83        2.094997   1.000000
   84        2.109661   1.000000
   85        2.126164   1.000000
   86        2.142581   1.000000
   87        2.145859   1.000000
   88        2.172693   1.000000
   89        2.223170   1.000000
   90        2.247006   1.000000
   91        2.260393   1.000000
   92        2.281130   1.000000
   93        2.299589   1.000000
   94        2.320927   1.000000
   95        2.342581   1.000000
   96        2.357513   1.000000
   97        2.371751   1.000000
   98        2.395844   1.000000
   99        2.412595   1.000000
  100        2.425802   1.000000
  101        2.439474   1.000000
  102        2.443615   1.000000
  103        2.464427   1.000000
  104        2.479179   1.000000
  105        2.497656   1.000000
  106        2.520232   1.000000
  107        2.541882   1.000000
  108        2.549650   1.000000
  109        2.568706   1.000000
  110        2.578374   1.000000
  111        2.609571   1.000000
  112        2.629013   1.000000
  113        2.641833   1.000000
  114        2.674309   1.000000
  115        2.693394   1.000000
  116        2.699820   1.000000
  117        2.724120   1.000000
  118        2.739612   1.000000
  119        2.754513   1.000000
  120        2.772307   1.000000
  121        2.789540   1.000000
  122        2.808878   1.000003
  123        2.835053   1.000076
  124        2.850392   1.000392
  125        2.869041   1.002150
  126        2.878657   1.004548
  127        2.905050   1.021417
  128        2.929602   1.034362
  129        2.964923   0.834405
  130        2.973438   0.718085
  131        2.990255   0.442388
  132        3.009426   0.157592
  133        3.023176   0.031161
  134        3.047085  -0.035395
  135        3.051457  -0.034818
  136        3.069617  -0.020524
  137        3.089711  -0.006613
  138        3.114676  -0.000896
  139        3.139911  -0.000066
  140        3.148992  -0.000023
  141        3.163360  -0.000004
  142        3.205524  -0.000000
  143        3.217636  -0.000000
  144        3.234258  -0.000000
  145        3.245203  -0.000000
  146        3.268545  -0.000000
  147        3.288537  -0.000000
  148        3.314661  -0.000000
  149        3.332507  -0.000000
  150        3.335961  -0.000000
  151        3.345660  -0.000000
  152        3.366495  -0.000000
  153        3.385030  -0.000000
  154        3.398550  -0.000000
  155        3.405891  -0.000000
  156        3.428352  -0.000000
  157        3.443621  -0.000000
  158        3.459699  -0.000000
  159        3.485265  -0.000000
  160        3.502609  -0.000000
  161        3.520875  -0.000000
  162        3.531922  -0.000000
  163        3.548518  -0.000000
  164        3.560376  -0.000000
  165        3.573520  -0.000000
  166        3.589764  -0.000000
  167        3.607901  -0.000000
 
  0.4000000E+00  0.3333333E+00  0.0000000E+00  0.1333333E+00
    1       -2.647737   1.000000
    2       -1.963622   1.000000
    3       -1.728226   1.000000
    4       -1.541962   1.000000
    5       -1.418828   1.000000
    6       -1.198366   1.000000
    7       -1.151711   1.000000
    8       -1.014807   1.000000
    9       -0.947704   1.000000
   10       -0.836402   1.000000
   11       -0.568397   1.000000
   12       -0.547090   1.000000
   13       -0.498987   1.000000
   14       -0.410647   1.000000
   15       -0.123722   1.000000
   16       -0.065999   1.000000
   17       -0.032237   1.000000
   18        0.011310   1.000000
   19        0.181481   1.000000
   20        0.319939   1.000000
   21        0.393781   1.000000
   22        0.408762   1.000000
   23        0.466445   1.000000
   24        0.538027   1.000000
   25        0.705724   1.000000
   26        0.742903   1.000000
   27        0.763376   1.000000
   28        0.783870   1.000000
   29        0.823638   1.000000
   30        0.847206   1.000000
   31        0.874147   1.000000
   32        0.894341   1.000000
   33        0.909918   1.000000
   34        0.920903   1.000000
   35        0.953697   1.000000
   36        0.988950   1.000000
   37        1.004149   1.000000
   38        1.036597   1.000000
   39        1.059703   1.000000
   40        1.083388   1.000000
   41        1.103631   1.000000
   42        1.128800   1.000000
   43        1.143100   1.000000
   44        1.170751   1.000000
   45        1.187475   1.000000
   46        1.219085   1.000000
   47        1.244992   1.000000
   48        1.266067   1.000000
   49        1.289487   1.000000
   50        1.294479   1.000000
   51        1.328423   1.000000
   52        1.341870   1.000000
   53        1.355870   1.000000
   54        1.378109   1.000000
   55        1.386275   1.000000
   56        1.414821   1.000000