 running on   16 total cores
 distrk:  each k-point on    8 cores,    2 groups
 distr:  one band on    8 cores,    1 groups
 using from now: INCAR     
 vasp.5.4.4.18Apr17-6-g9f103f2a35 (build Nov 27 2019 20:08:17) complex          
  
 POSCAR found type information on POSCAR  Ti Al
 POSCAR found :  2 types and      67 ions
 scaLAPACK will be used

 ----------------------------------------------------------------------------- 
|                                                                             |
|           W    W    AA    RRRRR   N    N  II  N    N   GGGG   !!!           |
|           W    W   A  A   R    R  NN   N  II  NN   N  G    G  !!!           |
|           W    W  A    A  R    R  N N  N  II  N N  N  G       !!!           |
|           W WW W  AAAAAA  RRRRR   N  N N  II  N  N N  G  GGG   !            |
|           WW  WW  A    A  R   R   N   NN  II  N   NN  G    G                |
|           W    W  A    A  R    R  N    N  II  N    N   GGGG   !!!           |
|                                                                             |
|      You have enabled k-point parallelism (KPAR>1).                         |
|      This developmental code was originally  written by Paul Kent at ORNL,  |
|      and carefully double checked in Vienna.                                |
|      GW as well as linear response parallelism added by Martijn Marsman     |
|      and Georg Kresse.                                                      |
|      Carefully verify results versus KPAR=1.                                |
|      Report problems to Paul Kent and Vienna.                               |
|                                                                             |
 ----------------------------------------------------------------------------- 

 LDA part: xc-table for Pade appr. of Perdew
 POSCAR found type information on POSCAR  Ti Al
 POSCAR found :  2 types and      67 ions
 POSCAR, INCAR and KPOINTS ok, starting setup
 FFT: planning ...
 WAVECAR not read
 entering main loop
       N       E                     dE             d eps       ncg     rms          rms(c)
DAV:   1     0.102914429161E+04    0.10291E+04   -0.68711E+04  4008   0.108E+03
DAV:   2    -0.360473481205E+03   -0.13896E+04   -0.13492E+04  4008   0.262E+02
DAV:   3    -0.569771034904E+03   -0.20930E+03   -0.19492E+03  5976   0.915E+01
DAV:   4    -0.586537968055E+03   -0.16767E+02   -0.15763E+02  5936   0.269E+01
DAV:   5    -0.587238078099E+03   -0.70011E+00   -0.67642E+00  5872   0.431E+00    0.105E+02
DAV:   6    -0.160008297427E+04   -0.10128E+04   -0.10840E+04  7935   0.190E+02    0.134E+02
DAV:   7    -0.588494696142E+03    0.10116E+04   -0.89123E+03  7328   0.174E+02    0.755E+01
DAV:   8    -0.536971210282E+03    0.51523E+02   -0.27846E+03  6464   0.154E+02    0.472E+01
DAV:   9    -0.576193372151E+03   -0.39222E+02   -0.95412E+02  7208   0.783E+01    0.514E+01
DAV:  10    -0.528599268800E+03    0.47594E+02   -0.32016E+02  6952   0.469E+01    0.411E+01
DAV:  11    -0.524784307632E+03    0.38150E+01   -0.57943E+01  6504   0.156E+01    0.394E+01
DAV:  12    -0.521228741444E+03    0.35556E+01   -0.54073E+00  6488   0.500E+00    0.369E+01
DAV:  13    -0.516658296209E+03    0.45704E+01   -0.26312E+00  6032   0.421E+00    0.326E+01
DAV:  14    -0.511395112941E+03    0.52632E+01   -0.27400E+01  6224   0.129E+01    0.249E+01
DAV:  15    -0.502728383684E+03    0.86667E+01   -0.20296E+01  6312   0.117E+01    0.135E+01
DAV:  16    -0.501403278117E+03    0.13251E+01   -0.32102E+00  5704   0.471E+00    0.105E+01
DAV:  17    -0.501000968783E+03    0.40231E+00   -0.10114E+00  6264   0.247E+00    0.981E+00
DAV:  18    -0.500797524583E+03    0.20344E+00   -0.15553E+00  6432   0.319E+00    0.908E+00
DAV:  19    -0.500290456085E+03    0.50707E+00   -0.13163E+00  6200   0.274E+00    0.760E+00
DAV:  20    -0.499627529084E+03    0.66293E+00   -0.13568E+00  6096   0.292E+00    0.476E+00
DAV:  21    -0.499521112913E+03    0.10642E+00   -0.53795E-01  6080   0.186E+00    0.397E+00
DAV:  22    -0.499458395571E+03    0.62717E-01   -0.24145E-01  6184   0.127E+00    0.330E+00
DAV:  23    -0.499379644458E+03    0.78751E-01   -0.20032E-01  6128   0.116E+00    0.239E+00
DAV:  24    -0.499320211404E+03    0.59433E-01   -0.20964E-01  6360   0.117E+00    0.140E+00
DAV:  25    -0.499297884875E+03    0.22327E-01   -0.12477E-01  6240   0.877E-01    0.644E-01
DAV:  26    -0.499296437455E+03    0.14474E-02   -0.34216E-02  6128   0.488E-01    0.476E-01
DAV:  27    -0.499295762406E+03    0.67505E-03   -0.16289E-02  6184   0.329E-01    0.365E-01
DAV:  28    -0.499295108476E+03    0.65393E-03   -0.57669E-03  6128   0.207E-01    0.252E-01
DAV:  29    -0.499294666232E+03    0.44224E-03   -0.32348E-03  6216   0.151E-01    0.177E-01
DAV:  30    -0.499294439327E+03    0.22691E-03   -0.14205E-03  6200   0.939E-02    0.137E-01
DAV:  31    -0.499294257614E+03    0.18171E-03   -0.74167E-04  6216   0.731E-02    0.862E-02
DAV:  32    -0.499294223384E+03    0.34229E-04   -0.28400E-04  6080   0.436E-02    0.626E-02
DAV:  33    -0.499294212132E+03    0.11252E-04   -0.92254E-05  6032   0.262E-02    0.464E-02
DAV:  34    -0.499294206620E+03    0.55118E-05   -0.51271E-05  6048   0.182E-02    0.374E-02
DAV:  35    -0.499294199524E+03    0.70967E-05   -0.20970E-05  6168   0.118E-02    0.303E-02
DAV:  36    -0.499294190775E+03    0.87489E-05   -0.16145E-05  6200   0.107E-02    0.190E-02
DAV:  37    -0.499294189154E+03    0.16210E-05   -0.12230E-05  5968   0.913E-03    0.124E-02
DAV:  38    -0.499294188392E+03    0.76158E-06   -0.35526E-06  5952   0.507E-03    0.809E-03
DAV:  39    -0.499294187730E+03    0.66161E-06   -0.20806E-06  6248   0.343E-03    0.519E-03
DAV:  40    -0.499294187242E+03    0.48880E-06   -0.13453E-06  6200   0.269E-03    0.258E-03
DAV:  41    -0.499294187193E+03    0.49173E-07   -0.40424E-07  5248   0.159E-03
   1 F= -.49929419E+03 E0= -.49929320E+03  d E =-.499294E+03
 curvature:   0.00 expect dE= 0.000E+00 dE for cont linesearch  0.000E+00
 trial: gam= 0.00000 g(F)=  0.697E-01 g(S)=  0.000E+00 ort = 0.000E+00 (trialstep = 0.100E+01)
 search vector abs. value=  0.697E-01
 bond charge predicted
       N       E                     dE             d eps       ncg     rms          rms(c)
DAV:   1    -0.499357694204E+03   -0.63507E-01   -0.40772E-01  4120   0.107E+00    0.406E-01
DAV:   2    -0.499475240858E+03   -0.11755E+00   -0.52733E-01  6488   0.187E+00    0.243E+00
DAV:   3    -0.499376466300E+03    0.98775E-01   -0.44236E-01  7464   0.189E+00    0.106E+00
DAV:   4    -0.499355848747E+03    0.20618E-01   -0.10305E-01  6448   0.757E-01    0.264E-01
DAV:   5    -0.499355981066E+03   -0.13232E-03   -0.12702E-02  6152   0.303E-01    0.214E-01
DAV:   6    -0.499357686620E+03   -0.17056E-02   -0.91307E-03  7416   0.296E-01    0.358E-01
DAV:   7    -0.499355800109E+03    0.18865E-02   -0.86259E-03  7424   0.279E-01    0.175E-01
DAV:   8    -0.499355879546E+03   -0.79437E-04   -0.63222E-03  6336   0.188E-01    0.181E-01
DAV:   9    -0.499355486908E+03    0.39264E-03   -0.40514E-03  6224   0.159E-01    0.962E-02
DAV:  10    -0.499355367904E+03    0.11900E-03   -0.13492E-03  6000   0.916E-02    0.495E-02
DAV:  11    -0.499355348771E+03    0.19133E-04   -0.31635E-04  5984   0.503E-02    0.316E-02
DAV:  12    -0.499355337294E+03    0.11476E-04   -0.10269E-04  6008   0.277E-02    0.178E-02
DAV:  13    -0.499355337136E+03    0.15803E-06   -0.49239E-05  6032   0.175E-02    0.158E-02
DAV:  14    -0.499355337280E+03   -0.14389E-06   -0.42009E-05  6064   0.158E-02    0.147E-02
DAV:  15    -0.499355334294E+03    0.29866E-05   -0.24943E-05  5992   0.123E-02    0.660E-03
DAV:  16    -0.499355333857E+03    0.43700E-06   -0.65917E-06  5960   0.667E-03    0.421E-03
DAV:  17    -0.499355333712E+03    0.14477E-06   -0.18893E-06  5976   0.358E-03    0.265E-03
DAV:  18    -0.499355333636E+03    0.75433E-07   -0.60730E-07  5512   0.203E-03    0.147E-03
DAV:  19    -0.499355333662E+03   -0.25348E-07   -0.25010E-07  4160   0.141E-03
   2 F= -.49935533E+03 E0= -.49935427E+03  d E =-.611465E-01
 ZBRENT: can't locate minimum, use default step
 trial-energy change:   -0.061146  1 .order   -0.061278   -0.069667   -0.052890
 step:   4.0000(harm=  4.1526)  dis= 0.03450  next Energy=  -499.456012 (dE=-0.162E+00)
 bond charge predicted
       N       E                     dE             d eps       ncg     rms          rms(c)
DAV:   1    -0.499464399180E+03   -0.10907E+00   -0.35137E+00  4008   0.312E+00    0.114E+00
DAV:   2    -0.500384240268E+03   -0.91984E+00   -0.40522E+00  6464   0.528E+00    0.669E+00
DAV:   3    -0.499602591584E+03    0.78165E+00   -0.30654E+00  7496   0.539E+00    0.295E+00
DAV:   4    -0.499450682896E+03    0.15191E+00   -0.85099E-01  6464   0.213E+00    0.734E-01
DAV:   5    -0.499453172500E+03   -0.24896E-02   -0.10814E-01  6168   0.889E-01    0.648E-01
DAV:   6    -0.499466374148E+03   -0.13202E-01   -0.79960E-02  7368   0.889E-01    0.103E+00
DAV:   7    -0.499450348398E+03    0.16026E-01   -0.76273E-02  7304   0.796E-01    0.489E-01
DAV:   8    -0.499450506011E+03   -0.15761E-03   -0.50035E-02  6312   0.531E-01    0.473E-01
DAV:   9    -0.499447596709E+03    0.29093E-02   -0.28247E-02  6112   0.425E-01    0.239E-01
DAV:  10    -0.499446899351E+03    0.69736E-03   -0.90217E-03  6016   0.236E-01    0.129E-01
DAV:  11    -0.499446784465E+03    0.11489E-03   -0.24015E-03  6000   0.138E-01    0.893E-02
DAV:  12    -0.499446685323E+03    0.99142E-04   -0.94713E-04  6008   0.819E-02    0.478E-02
DAV:  13    -0.499446685603E+03   -0.27962E-06   -0.46352E-04  6024   0.528E-02    0.427E-02
DAV:  14    -0.499446683985E+03    0.16175E-05   -0.34298E-04  6072   0.455E-02    0.385E-02
DAV:  15    -0.499446662393E+03    0.21592E-04   -0.17490E-04  5992   0.333E-02    0.162E-02
DAV:  16    -0.499446659438E+03    0.29548E-05   -0.44812E-05  5968   0.176E-02    0.998E-03
DAV:  17    -0.499446658751E+03    0.68711E-06   -0.13707E-05  6016   0.946E-03    0.671E-03
DAV:  18    -0.499446658185E+03    0.56589E-06   -0.52255E-06  6032   0.578E-03    0.331E-03
DAV:  19    -0.499446658366E+03   -0.18155E-06   -0.23357E-06  6160   0.397E-03    0.373E-03
DAV:  20    -0.499446658247E+03    0.11913E-06   -0.17035E-06  6000   0.327E-03    0.158E-03
DAV:  21    -0.499446658253E+03   -0.61427E-08   -0.66186E-07  5448   0.197E-03    0.132E-03
DAV:  22    -0.499446658237E+03    0.16369E-07   -0.17637E-07  3512   0.133E-03
   3 F= -.49944666E+03 E0= -.49944534E+03  d E =-.152471E+00
 curvature:  -2.07 expect dE=-0.132E-01 dE for cont linesearch -0.286E-02
 ZBRENT: extrapolating
 opt :   4.6822  next Energy=  -499.450001 (dE=-0.156E+00)
 bond charge predicted
       N       E                     dE             d eps       ncg     rms          rms(c)
DAV:   1    -0.499451182537E+03   -0.45243E-02   -0.18174E-01  4036   0.711E-01    0.245E-01
DAV:   2    -0.499492793264E+03   -0.41611E-01   -0.19264E-01  6488   0.111E+00    0.147E+00
DAV:   3    -0.499458339355E+03    0.34454E-01   -0.16302E-01  7448   0.111E+00    0.643E-01
DAV:   4    -0.499450665975E+03    0.76734E-02   -0.36908E-02  6480   0.458E-01    0.160E-01
DAV:   5    -0.499450823490E+03   -0.15752E-03   -0.49155E-03  6184   0.190E-01    0.153E-01
DAV:   6    -0.499451129368E+03   -0.30588E-03   -0.32164E-03  7336   0.185E-01    0.193E-01
DAV:   7    -0.499450604190E+03    0.52518E-03   -0.30805E-03  6936   0.154E-01    0.102E-01
DAV:   8    -0.499450662518E+03   -0.58328E-04   -0.23234E-03  6288   0.114E-01    0.113E-01
DAV:   9    -0.499450501361E+03    0.16116E-03   -0.14846E-03  6200   0.975E-02    0.568E-02
DAV:  10    -0.499450461433E+03    0.39928E-04   -0.48124E-04  6008   0.539E-02    0.296E-02
DAV:  11    -0.499450455783E+03    0.56495E-05   -0.11959E-04  6000   0.305E-02    0.201E-02
DAV:  12    -0.499450451043E+03    0.47405E-05   -0.43314E-05  6008   0.181E-02    0.110E-02
DAV:  13    -0.499450450701E+03    0.34153E-06   -0.20041E-05  6016   0.111E-02    0.906E-03
DAV:  14    -0.499450450793E+03   -0.91572E-07   -0.15122E-05  6056   0.940E-03    0.864E-03
DAV:  15    -0.499450449775E+03    0.10176E-05   -0.87684E-06  5992   0.736E-03    0.397E-03
DAV:  16    -0.499450449595E+03    0.17955E-06   -0.23966E-06  5968   0.406E-03    0.240E-03
DAV:  17    -0.499450449549E+03    0.46553E-07   -0.66672E-07  5536   0.213E-03    0.150E-03
DAV:  18    -0.499450449517E+03    0.32202E-07   -0.14596E-07  3520   0.118E-03
   4 F= -.49945045E+03 E0= -.49944907E+03  d E =-.156262E+00
 curvature:  -2.43 expect dE=-0.181E-01 dE for cont linesearch -0.820E-04
 ZBRENT: extrapolating
 opt :   4.8128  next Energy=  -499.450547 (dE=-0.156E+00)
 bond charge predicted
       N       E                     dE             d eps       ncg     rms          rms(c)
DAV:   1    -0.499450555527E+03   -0.10598E-03   -0.66362E-03  4092   0.136E-01    0.463E-02
DAV:   2    -0.499452041776E+03   -0.14862E-02   -0.67488E-03  6504   0.210E-01    0.280E-01
DAV:   3    -0.499450813919E+03    0.12279E-02   -0.56876E-03  7456   0.209E-01    0.121E-01
DAV:   4    -0.499450537564E+03    0.27636E-03   -0.12888E-03  6480   0.865E-02    0.303E-02
DAV:   5    -0.499450542865E+03   -0.53013E-05   -0.17584E-04  6192   0.356E-02    0.286E-02
DAV:   6    -0.499450554838E+03   -0.11973E-04   -0.11614E-04  7368   0.351E-02    0.371E-02
DAV:   7    -0.499450535042E+03    0.19796E-04   -0.11143E-04  7016   0.295E-02    0.192E-02
DAV:   8    -0.499450537279E+03   -0.22368E-05   -0.82890E-05  6288   0.216E-02    0.216E-02
DAV:   9    -0.499450531355E+03    0.59240E-05   -0.53758E-05  6216   0.186E-02    0.110E-02
DAV:  10    -0.499450529820E+03    0.15349E-05   -0.17523E-05  6000   0.103E-02    0.559E-03
DAV:  11    -0.499450529596E+03    0.22372E-06   -0.42403E-06  6000   0.569E-03    0.381E-03
DAV:  12    -0.499450529409E+03    0.18776E-06   -0.15051E-06  5976   0.339E-03    0.210E-03
DAV:  13    -0.499450529387E+03    0.21877E-07   -0.71363E-07  5656   0.212E-03    0.177E-03
DAV:  14    -0.499450529373E+03    0.13601E-07   -0.55033E-07  5320   0.181E-03    0.164E-03
DAV:  15    -0.499450529327E+03    0.46604E-07   -0.27546E-07  4184   0.143E-03
   5 F= -.49945053E+03 E0= -.49944914E+03  d E =-.156342E+00
 curvature:  -2.87 expect dE=-0.231E-01 dE for cont linesearch -0.952E-06
 trial: gam= 0.11738 g(F)=  0.803E-02 g(S)=  0.000E+00 ort =-0.152E-03 (trialstep = 0.176E+01)
 search vector abs. value=  0.895E-02
 bond charge predicted
       N       E                     dE             d eps       ncg     rms          rms(c)
DAV:   1    -0.499462795880E+03   -0.12267E-01   -0.15573E-01  4008   0.664E-01    0.215E-01
DAV:   2    -0.499482158682E+03   -0.19363E-01   -0.10385E-01  6392   0.834E-01    0.106E+00
DAV:   3    -0.499469106691E+03    0.13052E-01   -0.75685E-02  7496   0.820E-01    0.600E-01
DAV:   4    -0.499462627284E+03    0.64794E-02   -0.21545E-02  7128   0.432E-01    0.156E-01
DAV:   5    -0.499462649848E+03   -0.22564E-04   -0.38478E-03  6240   0.160E-01    0.128E-01
DAV:   6    -0.499462947819E+03   -0.29797E-03   -0.34263E-03  7376   0.167E-01    0.174E-01
DAV:   7    -0.499462479801E+03    0.46802E-03   -0.29069E-03  6672   0.135E-01    0.864E-02
DAV:   8    -0.499462531351E+03   -0.51549E-04   -0.18546E-03  6136   0.102E-01    0.940E-02
DAV:   9    -0.499462401962E+03    0.12939E-03   -0.10685E-03  5968   0.830E-02    0.447E-02
DAV:  10    -0.499462377840E+03    0.24122E-04   -0.29091E-04  5968   0.423E-02    0.233E-02
DAV:  11    -0.499462376959E+03    0.88116E-06   -0.74806E-05  6080   0.232E-02    0.178E-02
DAV:  12    -0.499462373035E+03    0.39236E-05   -0.35520E-05  6064   0.151E-02    0.866E-03
DAV:  13    -0.499462374156E+03   -0.11210E-05   -0.17887E-05  6096   0.107E-02    0.103E-02
DAV:  14    -0.499462372888E+03    0.12683E-05   -0.12337E-05  6040   0.926E-03    0.554E-03
DAV:  15    -0.499462372434E+03    0.45430E-06   -0.41322E-06  6016   0.519E-03    0.264E-03
DAV:  16    -0.499462372415E+03    0.18812E-07   -0.10778E-06  5912   0.278E-03    0.209E-03
DAV:  17    -0.499462372365E+03    0.50379E-07   -0.44977E-07  4920   0.180E-03    0.107E-03
DAV:  18    -0.499462372348E+03    0.16214E-07   -0.89238E-08  2688   0.103E-03
   6 F= -.49946237E+03 E0= -.49946093E+03  d E =-.118430E-01
 trial-energy change:   -0.011843  1 .order   -0.011847   -0.014114   -0.009580
 step:   5.4867(harm=  5.4867)  dis= 0.11221  next Energy=  -499.472498 (dE=-0.220E-01)
 bond charge predicted
       N       E                     dE             d eps       ncg     rms          rms(c)
DAV:   1    -0.499474013144E+03   -0.11641E-01   -0.69065E-01  4008   0.140E+00    0.446E-01
DAV:   2    -0.499553852148E+03   -0.79839E-01   -0.44289E-01  6360   0.171E+00    0.218E+00
DAV:   3    -0.499500228355E+03    0.53624E-01   -0.32415E-01  7480   0.168E+00    0.122E+00
DAV:   4    -0.499473415681E+03    0.26813E-01   -0.89796E-02  7200   0.886E-01    0.323E-01
DAV:   5    -0.499473551605E+03   -0.13592E-03   -0.16774E-02  6256   0.335E-01    0.271E-01
DAV:   6    -0.499474745575E+03   -0.11940E-02   -0.15019E-02  7392   0.347E-01    0.358E-01
DAV:   7    -0.499472745307E+03    0.20003E-02   -0.12483E-02  6608   0.279E-01    0.175E-01
DAV:   8    -0.499473027200E+03   -0.28189E-03   -0.80398E-03  6160   0.213E-01    0.200E-01
DAV:   9    -0.499472423721E+03    0.60348E-03   -0.46732E-03  5968   0.174E-01    0.899E-02
DAV:  10    -0.499472330938E+03    0.92784E-04   -0.12206E-03  5968   0.864E-02    0.482E-02
DAV:  11    -0.499472327585E+03    0.33529E-05   -0.31996E-04  6072   0.481E-02    0.368E-02
DAV:  12    -0.499472310902E+03    0.16683E-04   -0.15265E-04  6056   0.311E-02    0.178E-02
DAV:  13    -0.499472316254E+03   -0.53523E-05   -0.76351E-05  6104   0.220E-02    0.216E-02
DAV:  14    -0.499472310422E+03    0.58316E-05   -0.53132E-05  6008   0.192E-02    0.111E-02
DAV:  15    -0.499472308682E+03    0.17403E-05   -0.16771E-05  5992   0.105E-02    0.537E-03
DAV:  16    -0.499472308606E+03    0.76154E-07   -0.44515E-06  5992   0.563E-03    0.424E-03
DAV:  17    -0.499472308396E+03    0.20994E-06   -0.19308E-06  6008   0.366E-03    0.216E-03
DAV:  18    -0.499472308350E+03    0.45811E-07   -0.55371E-07  5432   0.198E-03    0.129E-03
DAV:  19    -0.499472308343E+03    0.72341E-08   -0.12738E-07  3192   0.116E-03
   7 F= -.49947231E+03 E0= -.49947077E+03  d E =-.217790E-01
 curvature:  -3.07 expect dE=-0.168E-02 dE for cont linesearch -0.301E-05
 trial: gam= 0.16423 g(F)=  0.548E-03 g(S)=  0.000E+00 ort =-0.937E-04 (trialstep = 0.251E+01)
 search vector abs. value=  0.759E-03
 bond charge predicted
       N       E                     dE             d eps       ncg     rms          rms(c)
DAV:   1    -0.499473438713E+03   -0.11304E-02   -0.25415E-02  4022   0.265E-01    0.806E-02
DAV:   2    -0.499478031602E+03   -0.45929E-02   -0.20421E-02  6536   0.365E-01    0.492E-01
DAV:   3    -0.499474208224E+03    0.38234E-02   -0.17282E-02  7440   0.365E-01    0.207E-01
DAV:   4    -0.499473416815E+03    0.79141E-03   -0.37933E-03  6472   0.149E-01    0.552E-02
DAV:   5    -0.499473419632E+03   -0.28170E-05   -0.58245E-04  6168   0.632E-02    0.454E-02
DAV:   6    -0.499473472435E+03   -0.52803E-04   -0.39915E-04  7256   0.585E-02    0.681E-02
DAV:   7    -0.499473412060E+03    0.60375E-04   -0.32924E-04  7416   0.568E-02    0.385E-02
DAV:   8    -0.499473410406E+03    0.16536E-05   -0.26592E-04  6368   0.395E-02    0.364E-02
DAV:   9    -0.499473393460E+03    0.16946E-04   -0.16393E-04  6152   0.319E-02    0.189E-02
DAV:  10    -0.499473388982E+03    0.44786E-05   -0.55321E-05  5960   0.183E-02    0.967E-03
DAV:  11    -0.499473388433E+03    0.54934E-06   -0.13348E-05  5976   0.100E-02    0.676E-03
DAV:  12    -0.499473387857E+03    0.57562E-06   -0.49244E-06  6008   0.608E-03    0.365E-03
DAV:  13    -0.499473387825E+03    0.32329E-07   -0.23717E-06  6008   0.387E-03    0.320E-03
DAV:  14    -0.499473387794E+03    0.30765E-07   -0.18336E-06  6040   0.329E-03    0.285E-03
DAV:  15    -0.499473387672E+03    0.12141E-06   -0.10029E-06  5760   0.247E-03    0.130E-03
DAV:  16    -0.499473387646E+03    0.26213E-07   -0.21167E-07  3800   0.138E-03
   8 F= -.49947339E+03 E0= -.49947182E+03  d E =-.107930E-02
 trial-energy change:   -0.001079  1 .order   -0.001091   -0.001335   -0.000846
 step:   6.8358(harm=  6.8358)  dis= 0.01528  next Energy=  -499.474129 (dE=-0.182E-02)
 bond charge predicted
       N       E                     dE             d eps       ncg     rms          rms(c)
DAV:   1    -0.499474267408E+03   -0.87974E-03   -0.75378E-02  4008   0.457E-01    0.137E-01
DAV:   2    -0.499487585321E+03   -0.13318E-01   -0.59511E-02  6528   0.621E-01    0.837E-01
DAV:   3    -0.499476494199E+03    0.11091E-01   -0.50289E-02  7432   0.621E-01    0.353E-01
DAV:   4    -0.499474215416E+03    0.22788E-02   -0.11064E-02  6480   0.254E-01    0.939E-02
DAV:   5    -0.499474230790E+03   -0.15374E-04   -0.17068E-03  6208   0.108E-01    0.796E-02
DAV:   6    -0.499474420138E+03   -0.18935E-03   -0.12253E-03  7392   0.106E-01    0.125E-01
DAV:   7    -0.499474191889E+03    0.22825E-03   -0.10599E-03  7416   0.996E-02    0.622E-02
DAV:   8    -0.499474196335E+03   -0.44459E-05   -0.76551E-04  6360   0.660E-02    0.619E-02
DAV:   9    -0.499474147251E+03    0.49084E-04   -0.47384E-04  6152   0.547E-02    0.317E-02
DAV:  10    -0.499474134970E+03    0.12281E-04   -0.15639E-04  5976   0.307E-02    0.164E-02
DAV:  11    -0.499474133448E+03    0.15217E-05   -0.38036E-05  5976   0.169E-02    0.115E-02
DAV:  12    -0.499474131903E+03    0.15448E-05   -0.14290E-05  6032   0.103E-02    0.631E-03
DAV:  13    -0.499474131863E+03    0.39952E-07   -0.72738E-06  6008   0.676E-03    0.558E-03
DAV:  14    -0.499474131795E+03    0.68669E-07   -0.56053E-06  6024   0.574E-03    0.491E-03
DAV:  15    -0.499474131445E+03    0.34955E-06   -0.29532E-06  5968   0.424E-03    0.219E-03
DAV:  16    -0.499474131393E+03    0.52190E-07   -0.76830E-07  5592   0.233E-03    0.141E-03
DAV:  17    -0.499474131368E+03    0.24669E-07   -0.17186E-07  3592   0.125E-03
   9 F= -.49947413E+03 E0= -.49947253E+03  d E =-.182303E-02
 curvature:  -4.87 expect dE=-0.144E-04 dE for cont linesearch -0.378E-05
 ZBRENT: extrapolating
 opt :   7.1716  next Energy=  -499.474135 (dE=-0.183E-02)
 bond charge predicted
       N       E                     dE             d eps       ncg     rms          rms(c)
DAV:   1    -0.499474134024E+03   -0.26316E-05   -0.45291E-04  4162   0.354E-02    0.106E-02
DAV:   2    -0.499474214363E+03   -0.80339E-04   -0.35020E-04  6552   0.480E-02    0.653E-02
DAV:   3    -0.499474147117E+03    0.67246E-04   -0.29671E-04  7432   0.479E-02    0.270E-02
DAV:   4    -0.499474133649E+03    0.13468E-04   -0.64485E-05  6464   0.195E-02    0.720E-03
DAV:   5    -0.499474133720E+03   -0.71086E-07   -0.10289E-05  6184   0.837E-03    0.612E-03
DAV:   6    -0.499474134620E+03   -0.89943E-06   -0.71712E-06  7304   0.786E-03    0.908E-03
DAV:   7    -0.499474133506E+03    0.11136E-05   -0.58401E-06  7432   0.756E-03    0.503E-03
DAV:   8    -0.499474133466E+03    0.39645E-07   -0.46094E-06  6368   0.520E-03    0.481E-03
DAV:   9    -0.499474133142E+03    0.32423E-06   -0.28074E-06  6136   0.419E-03    0.244E-03
DAV:  10    -0.499474133061E+03    0.81605E-07   -0.92067E-07  5864   0.235E-03    0.125E-03
DAV:  11    -0.499474133036E+03    0.24293E-07   -0.16315E-07  3592   0.129E-03
  10 F= -.49947413E+03 E0= -.49947252E+03  d E =-.182469E-02
 curvature:  -5.25 expect dE=-0.288E-04 dE for cont linesearch -0.898E-07
 ZBRENT: bracketing found
 ZBRENT: interpolating
 opt :   7.1282  next Energy=  -499.474133 (dE=-0.182E-02)
 bond charge predicted
       N       E                     dE             d eps       ncg     rms          rms(c)
DAV:   1    -0.499474133341E+03   -0.28047E-06   -0.76723E-06  4176   0.471E-03    0.148E-03
DAV:   2    -0.499474135081E+03   -0.17399E-05   -0.73912E-06  6568   0.694E-03    0.953E-03
DAV:   3    -0.499474133634E+03    0.14469E-05   -0.63150E-06  7432   0.699E-03    0.390E-03
DAV:   4    -0.499474133349E+03    0.28501E-06   -0.13904E-06  6288   0.289E-03    0.926E-04
DAV:   5    -0.499474133350E+03   -0.80036E-09   -0.16992E-07  3520   0.123E-03
  11 F= -.49947413E+03 E0= -.49947252E+03  d E =-.182501E-02
 curvature:  -4.57 expect dE=-0.233E-04 dE for cont linesearch -0.125E-09
 trial: gam= 0.06379 g(F)=  0.509E-05 g(S)=  0.000E+00 ort =-0.144E-06 (trialstep = 0.343E+01)
 search vector abs. value=  0.816E-05
 bond charge predicted
       N       E                     dE             d eps       ncg     rms          rms(c)
DAV:   1    -0.499474145553E+03   -0.12204E-04   -0.52567E-04  4078   0.386E-02    0.119E-02
DAV:   2    -0.499474221842E+03   -0.76288E-04   -0.35130E-04  6464   0.495E-02    0.656E-02
DAV:   3    -0.499474165523E+03    0.56319E-04   -0.25840E-04  7488   0.493E-02    0.337E-02
DAV:   4    -0.499474145288E+03    0.20235E-04   -0.72473E-05  6960   0.238E-02    0.840E-03
DAV:   5    -0.499474145761E+03   -0.47272E-06   -0.13569E-05  6296   0.959E-03    0.829E-03
DAV:   6    -0.499474145840E+03   -0.79732E-07   -0.10492E-05  7336   0.942E-03    0.860E-03
DAV:   7    -0.499474144735E+03    0.11055E-05   -0.76245E-06  6352   0.678E-03    0.433E-03
DAV:   8    -0.499474144956E+03   -0.22113E-06   -0.51391E-06  6120   0.550E-03    0.520E-03
DAV:   9    -0.499474144535E+03    0.42076E-06   -0.31291E-06  5968   0.451E-03    0.234E-03
DAV:  10    -0.499474144479E+03    0.55990E-07   -0.91537E-07  5880   0.234E-03    0.140E-03
DAV:  11    -0.499474144458E+03    0.21040E-07   -0.21812E-07  3776   0.141E-03
  12 F= -.49947414E+03 E0= -.49947253E+03  d E =-.111085E-04
 trial-energy change:   -0.000011  1 .order   -0.000011   -0.000017   -0.000005
 step:   4.6347(harm=  4.6347)  dis= 0.00279  next Energy=  -499.474145 (dE=-0.118E-04)
 reached required accuracy - stopping structural energy minimisation
