<?xml version="1.0" encoding="ISO-8859-1"?>
<modeling>
 <generator>
  <i name="program" type="string">vasp </i>
  <i name="version" type="string">5.4.4.18Apr17-6-g9f103f2a35  </i>
  <i name="subversion" type="string">(build Nov 27 2019 20:08:17) complex            parallel </i>
  <i name="platform" type="string">LinuxIFC </i>
  <i name="date" type="string">2020 04 19 </i>
  <i name="time" type="string">09:43:46 </i>
 </generator>
 <incar>
  <i type="string" name="PREC">normal</i>
  <i type="string" name="ALGO"> Normal</i>
  <i type="logical" name="LSORBIT"> F  </i>
  <i type="int" name="ISPIN">     1</i>
  <i type="int" name="ICHARG">     2</i>
  <i type="int" name="NELM">   300</i>
  <i type="int" name="IBRION">     2</i>
  <i name="EDIFF">      0.00000005</i>
  <i name="EDIFFG">     -0.00500000</i>
  <i type="int" name="NSW">   400</i>
  <i type="int" name="ISIF">     2</i>
  <i name="ENCUT">    380.00000000</i>
  <i type="string" name="LREAL"> Auto</i>
  <i type="int" name="ISMEAR">     1</i>
  <i name="SIGMA">      0.05000000</i>
  <i type="logical" name="LWAVE"> F  </i>
  <i type="logical" name="LCHARG"> T  </i>
  <i type="logical" name="LVTOT"> F  </i>
  <i type="logical" name="LVHAR"> F  </i>
  <i type="int" name="LORBIT">     0</i>
  <i type="logical" name="LELF"> F  </i>
  <v type="int" name="KPOINT_BSE">    -1     0     0     0</v>
  <i type="int" name="NELM">   300</i>
  <i type="string" name="GGA"> PS</i>
  <i type="logical" name="LDAU"> F  </i>
 </incar>
 <structure name="primitive_cell" >
  <crystal>
   <varray name="basis" >
    <v>       6.30976000       0.00000000       0.00000000 </v>
    <v>       0.00000000       9.46464000       0.00000000 </v>
    <v>       0.00000000       0.00000000      18.91832600 </v>
   </varray>
   <i name="volume">   1129.79499167 </i>
   <varray name="rec_basis" >
    <v>       0.15848463       0.00000000       0.00000000 </v>
    <v>       0.00000000       0.10565642       0.00000000 </v>
    <v>       0.00000000       0.00000000       0.05285880 </v>
   </varray>
  </crystal>
  <varray name="positions" >
   <v>      -0.37500000       0.04166700      -0.50000000 </v>
   <v>       0.37500000       0.20833300      -0.42071200 </v>
   <v>      -0.12500000       0.20833300      -0.42071200 </v>
   <v>       0.37500000      -0.12500000      -0.42071200 </v>
   <v>      -0.12500000      -0.12500000      -0.42071200 </v>
   <v>      -0.37500000       0.12500000       0.35679700 </v>
   <v>       0.37500000      -0.12500000       0.39644100 </v>
   <v>      -0.12500000      -0.12500000       0.39644100 </v>
   <v>      -0.37500000       0.04166700      -0.34142400 </v>
   <v>      -0.37500000       0.37500000      -0.50000000 </v>
   <v>       0.12500000       0.04166700      -0.50000000 </v>
   <v>      -0.37500000      -0.29166700      -0.50000000 </v>
   <v>       0.37500000       0.37500000       0.39644100 </v>
   <v>      -0.12500000       0.37500000       0.39644100 </v>
   <v>      -0.37500000       0.37500000      -0.34142400 </v>
   <v>       0.12500000       0.04166700      -0.34142400 </v>
   <v>      -0.37500000      -0.29166700      -0.34142400 </v>
   <v>       0.12500000       0.37500000      -0.50000000 </v>
   <v>       0.12500000      -0.29166700      -0.50000000 </v>
   <v>      -0.37500000      -0.12500000       0.27750900 </v>
   <v>      -0.37500000      -0.37500000       0.35679700 </v>
   <v>       0.37500000       0.20833300      -0.26213500 </v>
   <v>      -0.12500000       0.20833300      -0.26213500 </v>
   <v>       0.37500000      -0.12500000      -0.26213500 </v>
   <v>      -0.12500000      -0.12500000      -0.26213500 </v>
   <v>       0.37500000      -0.45833300      -0.42071200 </v>
   <v>      -0.12500000      -0.45833300      -0.42071200 </v>
   <v>      -0.37500000       0.37500000       0.27750900 </v>
   <v>       0.37500000       0.12500000       0.23786500 </v>
   <v>      -0.12500000       0.12500000       0.23786500 </v>
   <v>       0.12500000       0.37500000      -0.34142400 </v>
   <v>       0.12500000      -0.29166700      -0.34142400 </v>
   <v>       0.12500000      -0.12500000       0.27750900 </v>
   <v>       0.12500000      -0.37500000       0.35679700 </v>
   <v>      -0.37500000       0.04166700      -0.18284700 </v>
   <v>       0.12500000       0.37500000       0.27750900 </v>
   <v>       0.37500000      -0.37500000       0.23786400 </v>
   <v>      -0.12500000      -0.37500000       0.23786400 </v>
   <v>       0.37500000      -0.45833300      -0.26213500 </v>
   <v>      -0.12500000      -0.45833300      -0.26213500 </v>
   <v>      -0.37500000       0.37500000      -0.18284700 </v>
   <v>       0.12500000       0.04166700      -0.18284700 </v>
   <v>      -0.37500000      -0.29166700      -0.18284700 </v>
   <v>       0.37500000      -0.12500000       0.15857600 </v>
   <v>      -0.12500000      -0.12500000       0.15857600 </v>
   <v>      -0.37500000       0.12500000       0.11893200 </v>
   <v>      -0.12500100       0.37500000       0.15857600 </v>
   <v>       0.37499900       0.37500000       0.15857600 </v>
   <v>       0.12500000       0.37500000      -0.18284700 </v>
   <v>       0.12500000      -0.29166700      -0.18284700 </v>
   <v>       0.37500000       0.20833300      -0.10355900 </v>
   <v>      -0.12500000       0.20833300      -0.10355900 </v>
   <v>       0.37500000      -0.12500000      -0.10355900 </v>
   <v>      -0.12500000      -0.12500000      -0.10355900 </v>
   <v>       0.12500000       0.12500000       0.11893200 </v>
   <v>      -0.37500000      -0.37500000       0.11893200 </v>
   <v>       0.12500000      -0.37500000       0.11893200 </v>
   <v>      -0.37500000      -0.12500000       0.03964400 </v>
   <v>       0.37500000      -0.45833300      -0.10355900 </v>
   <v>      -0.12500000      -0.45833300      -0.10355900 </v>
   <v>      -0.37500000       0.37500000       0.03964400 </v>
   <v>       0.12500000      -0.12500000       0.03964400 </v>
   <v>       0.37500000       0.12500000       0.00000000 </v>
   <v>      -0.12500000       0.12500000       0.00000000 </v>
   <v>       0.12500000       0.37500000       0.03964400 </v>
   <v>       0.37500000      -0.37500000       0.00000000 </v>
   <v>      -0.12500000      -0.37500000       0.00000000 </v>
  </varray>
 </structure>
 <varray name="primitive_index" >
  <v type="int" >        1 </v>
  <v type="int" >       18 </v>
  <v type="int" >       19 </v>
  <v type="int" >       30 </v>
  <v type="int" >       31 </v>
  <v type="int" >       40 </v>
  <v type="int" >       57 </v>
  <v type="int" >       58 </v>
  <v type="int" >        3 </v>
  <v type="int" >        7 </v>
  <v type="int" >       67 </v>
  <v type="int" >       13 </v>
  <v type="int" >       55 </v>
  <v type="int" >       56 </v>
  <v type="int" >        9 </v>
  <v type="int" >        2 </v>
  <v type="int" >       15 </v>
  <v type="int" >        6 </v>
  <v type="int" >       12 </v>
  <v type="int" >       50 </v>
  <v type="int" >       37 </v>
  <v type="int" >       20 </v>
  <v type="int" >       21 </v>
  <v type="int" >       32 </v>
  <v type="int" >       33 </v>
  <v type="int" >       24 </v>
  <v type="int" >       25 </v>
  <v type="int" >       48 </v>
  <v type="int" >       63 </v>
  <v type="int" >       64 </v>
  <v type="int" >        8 </v>
  <v type="int" >       14 </v>
  <v type="int" >       49 </v>
  <v type="int" >       36 </v>
  <v type="int" >        5 </v>
  <v type="int" >       47 </v>
  <v type="int" >       59 </v>
  <v type="int" >       60 </v>
  <v type="int" >       26 </v>
  <v type="int" >       27 </v>
  <v type="int" >       11 </v>
  <v type="int" >        4 </v>
  <v type="int" >       17 </v>
  <v type="int" >       51 </v>
  <v type="int" >       52 </v>
  <v type="int" >       42 </v>
  <v type="int" >       54 </v>
  <v type="int" >       53 </v>
  <v type="int" >       10 </v>
  <v type="int" >       16 </v>
  <v type="int" >       22 </v>
  <v type="int" >       23 </v>
  <v type="int" >       34 </v>
  <v type="int" >       35 </v>
  <v type="int" >       41 </v>
  <v type="int" >       39 </v>
  <v type="int" >       38 </v>
  <v type="int" >       46 </v>
  <v type="int" >       28 </v>
  <v type="int" >       29 </v>
  <v type="int" >       44 </v>
  <v type="int" >       45 </v>
  <v type="int" >       65 </v>
  <v type="int" >       66 </v>
  <v type="int" >       43 </v>
  <v type="int" >       61 </v>
  <v type="int" >       62 </v>
 </varray>
 <kpoints>
  <generation param="Gamma">
   <v type="int" name="divisions">       5        3        2 </v>
   <v name="usershift">      0.00000000       0.00000000       0.00000000 </v>
   <v name="genvec1">      0.20000000       0.00000000       0.00000000 </v>
   <v name="genvec2">      0.00000000       0.33333333       0.00000000 </v>
   <v name="genvec3">      0.00000000       0.00000000       0.50000000 </v>
   <v name="shift">      0.00000000       0.00000000       0.00000000 </v>
  </generation>
  <varray name="kpointlist" >
   <v>       0.00000000       0.00000000       0.00000000 </v>
   <v>       0.20000000       0.00000000       0.00000000 </v>
   <v>       0.40000000       0.00000000       0.00000000 </v>
   <v>       0.00000000       0.33333333       0.00000000 </v>
   <v>       0.20000000       0.33333333       0.00000000 </v>
   <v>       0.40000000       0.33333333       0.00000000 </v>
   <v>       0.00000000       0.00000000       0.50000000 </v>
   <v>       0.20000000       0.00000000       0.50000000 </v>
   <v>       0.40000000       0.00000000       0.50000000 </v>
   <v>       0.00000000       0.33333333       0.50000000 </v>
   <v>       0.20000000       0.33333333       0.50000000 </v>
   <v>       0.40000000       0.33333333       0.50000000 </v>
  </varray>
  <varray name="weights" >
   <v>       0.03333333 </v>
   <v>       0.06666667 </v>
   <v>       0.06666667 </v>
   <v>       0.06666667 </v>
   <v>       0.13333333 </v>
   <v>       0.13333333 </v>
   <v>       0.03333333 </v>
   <v>       0.06666667 </v>
   <v>       0.06666667 </v>
   <v>       0.06666667 </v>
   <v>       0.13333333 </v>
   <v>       0.13333333 </v>
  </varray>
 </kpoints>
 <parameters>
  <separator name="general" >
   <i type="string" name="SYSTEM">unknown system</i>
   <i type="logical" name="LCOMPAT"> F  </i>
  </separator>
  <separator name="electronic" >
   <i type="string" name="PREC">normal</i>
   <i name="ENMAX">    380.00000000</i>
   <i name="ENAUG">    328.88300000</i>
   <i name="EDIFF">      0.00000005</i>
   <i type="int" name="IALGO">    38</i>
   <i type="int" name="IWAVPR">    11</i>
   <i type="int" name="NBANDS">   167</i>
   <i name="NELECT">    267.00000000</i>
   <i type="int" name="TURBO">     0</i>
   <i type="int" name="IRESTART">     0</i>
   <i type="int" name="NREBOOT">     0</i>
   <i type="int" name="NMIN">     0</i>
   <i name="EREF">      0.00000000</i>
   <separator name="electronic smearing" >
    <i type="int" name="ISMEAR">     1</i>
    <i name="SIGMA">      0.05000000</i>
    <i name="KSPACING">      0.50000000</i>
    <i type="logical" name="KGAMMA"> T  </i>
   </separator>
   <separator name="electronic projectors" >
    <i type="logical" name="LREAL"> T  </i>
    <v name="ROPT">     -0.00050000     -0.00050000</v>
    <i type="int" name="LMAXPAW">  -100</i>
    <i type="int" name="LMAXMIX">     2</i>
    <i type="logical" name="NLSPLINE"> F  </i>
   </separator>
   <separator name="electronic startup" >
    <i type="int" name="ISTART">     0</i>
    <i type="int" name="ICHARG">     2</i>
    <i type="int" name="INIWAV">     1</i>
   </separator>
   <separator name="electronic spin" >
    <i type="int" name="ISPIN">     1</i>
    <i type="logical" name="LNONCOLLINEAR"> F  </i>
    <v name="MAGMOM">      1.00000000      1.00000000      1.00000000      1.00000000      1.00000000      1.00000000      1.00000000      1.00000000      1.00000000      1.00000000      1.00000000      1.00000000      1.00000000      1.00000000      1.00000000      1.00000000      1.00000000      1.00000000      1.00000000      1.00000000
      1.00000000      1.00000000      1.00000000      1.00000000      1.00000000      1.00000000      1.00000000      1.00000000      1.00000000      1.00000000      1.00000000      1.00000000      1.00000000      1.00000000      1.00000000      1.00000000      1.00000000      1.00000000      1.00000000      1.00000000
      1.00000000      1.00000000      1.00000000      1.00000000      1.00000000      1.00000000      1.00000000      1.00000000      1.00000000      1.00000000      1.00000000      1.00000000      1.00000000      1.00000000      1.00000000      1.00000000      1.00000000      1.00000000      1.00000000      1.00000000
      1.00000000      1.00000000      1.00000000      1.00000000      1.00000000      1.00000000      1.00000000</v>
    <i name="NUPDOWN">     -1.00000000</i>
    <i type="logical" name="LSORBIT"> F  </i>
    <v name="SAXIS">      0.00000000      0.00000000      1.00000000</v>
    <i type="logical" name="LSPIRAL"> F  </i>
    <v name="QSPIRAL">      0.00000000      0.00000000      0.00000000</v>
    <i type="logical" name="LZEROZ"> F  </i>
   </separator>
   <separator name="electronic exchange-correlation" >
    <i type="logical" name="LASPH"> F  </i>
    <i type="logical" name="LMETAGGA"> F  </i>
   </separator>
   <separator name="electronic convergence" >
    <i type="int" name="NELM">   300</i>
    <i type="int" name="NELMDL">    -5</i>
    <i type="int" name="NELMIN">     2</i>
    <i name="ENINI">    380.00000000</i>
    <separator name="electronic convergence detail" >
     <i type="logical" name="LDIAG"> T  </i>
     <i type="logical" name="LSUBROT"> F  </i>
     <i name="WEIMIN">      0.00100000</i>
     <i name="EBREAK">      0.00000000</i>
     <i name="DEPER">      0.30000000</i>
     <i type="int" name="NRMM">     4</i>
     <i name="TIME">      0.40000000</i>
    </separator>
   </separator>
   <separator name="electronic mixer" >
    <i name="AMIX">      0.40000000</i>
    <i name="BMIX">      1.00000000</i>
    <i name="AMIN">      0.10000000</i>
    <i name="AMIX_MAG">      1.60000000</i>
    <i name="BMIX_MAG">      1.00000000</i>
    <separator name="electronic mixer details" >
     <i type="int" name="IMIX">     4</i>
     <i type="logical" name="MIXFIRST"> F  </i>
     <i type="int" name="MAXMIX">   -45</i>
     <i name="WC">    100.00000000</i>
     <i type="int" name="INIMIX">     1</i>
     <i type="int" name="MIXPRE">     1</i>
     <i type="int" name="MREMOVE">     5</i>
    </separator>
   </separator>
   <separator name="electronic dipolcorrection" >
    <i type="logical" name="LDIPOL"> F  </i>
    <i type="logical" name="LMONO"> F  </i>
    <i type="int" name="IDIPOL">     0</i>
    <i name="EPSILON">      1.00000000</i>
    <v name="DIPOL">   -100.00000000   -100.00000000   -100.00000000</v>
    <i name="EFIELD">      0.00000000</i>
   </separator>
  </separator>
  <separator name="grids" >
   <i type="int" name="NGX">    30</i>
   <i type="int" name="NGY">    48</i>
   <i type="int" name="NGZ">    90</i>
   <i type="int" name="NGXF">    60</i>
   <i type="int" name="NGYF">    96</i>
   <i type="int" name="NGZF">   180</i>
   <i type="logical" name="ADDGRID"> F  </i>
  </separator>
  <separator name="ionic" >
   <i type="int" name="NSW">   400</i>
   <i type="int" name="IBRION">     2</i>
   <i type="int" name="MDALGO">     0</i>
   <i type="int" name="ISIF">     2</i>
   <i name="PSTRESS">      0.00000000</i>
   <i name="EDIFFG">     -0.00500000</i>
   <i type="int" name="NFREE">     1</i>
   <i name="POTIM">      0.50000000</i>
   <i name="SMASS">     -3.00000000</i>
   <i name="SCALEE">      1.00000000</i>
  </separator>
  <separator name="ionic md" >
   <i name="TEBEG">      0.00010000</i>
   <i name="TEEND">      0.00010000</i>
   <i type="int" name="NBLOCK">     1</i>
   <i type="int" name="KBLOCK">   400</i>
   <i type="int" name="NPACO">   256</i>
   <i name="APACO">     16.00000000</i>
  </separator>
  <separator name="symmetry" >
   <i type="int" name="ISYM">     2</i>
   <i name="SYMPREC">      0.00001000</i>
  </separator>
  <separator name="dos" >
   <i type="int" name="LORBIT">     0</i>
   <v name="RWIGS">     -1.00000000     -1.00000000</v>
   <i type="int" name="NEDOS">   301</i>
   <i name="EMIN">     10.00000000</i>
   <i name="EMAX">    -10.00000000</i>
   <i name="EFERMI">      0.00000000</i>
  </separator>
  <separator name="writing" >
   <i type="int" name="NWRITE">     2</i>
   <i type="logical" name="LWAVE"> F  </i>
   <i type="logical" name="LDOWNSAMPLE"> F  </i>
   <i type="logical" name="LCHARG"> T  </i>
   <i type="logical" name="LPARD"> F  </i>
   <i type="logical" name="LVTOT"> F  </i>
   <i type="logical" name="LVHAR"> F  </i>
   <i type="logical" name="LELF"> F  </i>
   <i type="logical" name="LOPTICS"> F  </i>
   <v name="STM">      0.00000000      0.00000000      0.00000000      0.00000000      0.00000000      0.00000000      0.00000000</v>
  </separator>
  <separator name="performance" >
   <i type="int" name="NPAR">     1</i>
   <i type="int" name="NSIM">     4</i>
   <i type="int" name="NBLK">    -1</i>
   <i type="logical" name="LPLANE"> T  </i>
   <i type="logical" name="LSCALAPACK"> T  </i>
   <i type="logical" name="LSCAAWARE"> F  </i>
   <i type="logical" name="LSCALU"> F  </i>
   <i type="logical" name="LASYNC"> F  </i>
   <i type="logical" name="LORBITALREAL"> F  </i>
  </separator>
  <separator name="miscellaneous" >
   <i type="int" name="IDIOT">     3</i>
   <i type="int" name="ISPECIAL">     0</i>
   <i type="logical" name="LMUSIC"> F  </i>
   <v name="POMASS">     47.88000000     26.98100000</v>
   <v name="DARWINR">      0.00000000      0.00000000</v>
   <v name="DARWINV">      1.00000000      1.00000000</v>
   <i type="logical" name="LCORR"> T  </i>
  </separator>
  <i type="logical" name="GGA_COMPAT"> T  </i>
  <i type="logical" name="LBERRY"> F  </i>
  <i type="int" name="ICORELEVEL">     0</i>
  <i type="logical" name="LDAU"> F  </i>
  <i type="int" name="I_CONSTRAINED_M">     0</i>
  <separator name="electronic exchange-correlation" >
   <i type="string" name="GGA">PS</i>
   <i type="int" name="VOSKOWN">     0</i>
   <i type="logical" name="LHFCALC"> F  </i>
   <i type="string" name="PRECFOCK"></i>
   <i type="logical" name="LSYMGRAD"> F  </i>
   <i type="logical" name="LHFONE"> F  </i>
   <i type="logical" name="LRHFCALC"> F  </i>
   <i type="logical" name="LTHOMAS"> F  </i>
   <i type="logical" name="LMODELHF"> F  </i>
   <i name="ENCUT4O">     -1.00000000</i>
   <i type="int" name="EXXOEP">     0</i>
   <i type="int" name="FOURORBIT">     0</i>
   <i name="AEXX">      0.00000000</i>
   <i name="HFALPHA">      0.00000000</i>
   <i name="MCALPHA">      0.00000000</i>
   <i name="ALDAX">      1.00000000</i>
   <i name="AGGAX">      1.00000000</i>
   <i name="ALDAC">      1.00000000</i>
   <i name="AGGAC">      1.00000000</i>
   <i type="int" name="NKREDX">     1</i>
   <i type="int" name="NKREDY">     1</i>
   <i type="int" name="NKREDZ">     1</i>
   <i type="logical" name="SHIFTRED"> F  </i>
   <i type="logical" name="ODDONLY"> F  </i>
   <i type="logical" name="EVENONLY"> F  </i>
   <i type="int" name="LMAXFOCK">     0</i>
   <i type="int" name="NMAXFOCKAE">     0</i>
   <i type="logical" name="LFOCKAEDFT"> F  </i>
   <i name="HFSCREEN">      0.00000000</i>
   <i name="HFSCREENC">      0.00000000</i>
   <i type="int" name="NBANDSGWLOW">     0</i>
  </separator>
  <separator name="vdW DFT" >
   <i type="logical" name="LUSE_VDW"> F  </i>
   <i name="Zab_VDW">     -0.84910000</i>
   <i name="PARAM1">      0.12340000</i>
   <i name="PARAM2">      1.00000000</i>
   <i name="PARAM3">      0.00000000</i>
  </separator>
  <separator name="model GW" >
   <i type="int" name="MODEL_GW">     0</i>
   <i name="MODEL_EPS0">     10.11756709</i>
   <i name="MODEL_ALPHA">      1.00000000</i>
  </separator>
  <separator name="linear response parameters" >
   <i type="logical" name="LEPSILON"> F  </i>
   <i type="logical" name="LRPA"> F  </i>
   <i type="logical" name="LNABLA"> F  </i>
   <i type="logical" name="LVEL"> F  </i>
   <i type="int" name="KINTER">     0</i>
   <i name="CSHIFT">      0.10000000</i>
   <i name="OMEGAMAX">     -1.00000000</i>
   <i name="DEG_THRESHOLD">      0.00200000</i>
   <i name="RTIME">     -0.10000000</i>
   <i name="WPLASMAI">      0.00000000</i>
   <v name="DFIELD">      0.00000000      0.00000000      0.00000000</v>
   <v name="WPLASMA">      0.00000000      0.00000000      0.00000000      0.00000000      0.00000000      0.00000000      0.00000000      0.00000000      0.00000000</v>
  </separator>
  <separator name="orbital magnetization" >
   <i type="logical" name="NUCIND"> F  </i>
   <v name="MAGPOS">      0.00000000      0.00000000      0.00000000</v>
   <i type="logical" name="LNICSALL"> T  </i>
   <i type="logical" name="ORBITALMAG"> F  </i>
   <i type="logical" name="LMAGBLOCH"> F  </i>
   <i type="logical" name="LCHIMAG"> F  </i>
   <i type="logical" name="LGAUGE"> T  </i>
   <i type="int" name="MAGATOM">     0</i>
   <v name="MAGDIPOL">      0.00000000      0.00000000      0.00000000</v>
   <v name="AVECCONST">      0.00000000      0.00000000      0.00000000</v>
  </separator>
  <separator name="response functions" >
   <i type="logical" name="LADDER"> F  </i>
   <i type="logical" name="LRPAFORCE"> F  </i>
   <i type="logical" name="LFXC"> F  </i>
   <i type="logical" name="LHARTREE"> T  </i>
   <i type="int" name="IBSE">     0</i>
   <v type="int" name="KPOINT">    -1     0     0     0</v>
   <i type="logical" name="LTCTE"> F  </i>
   <i type="logical" name="LTETE"> F  </i>
   <i type="logical" name="LTRIPLET"> F  </i>
   <i type="logical" name="LFXCEPS"> F  </i>
   <i type="logical" name="LFXHEG"> F  </i>
   <i type="int" name="NATURALO">     2</i>
   <i type="logical" name="L2ORDER"> F  </i>
   <i type="logical" name="LMP2LT"> F  </i>
   <i type="logical" name="LUSEW"> F  </i>
   <i name="ENCUTGW">     -2.00000000</i>
   <i name="ENCUTGWSOFT">     -2.00000000</i>
   <i name="ENCUTLF">     -1.00000000</i>
   <i type="int" name="LMAXMP2">    -1</i>
   <i name="SCISSOR">      0.00000000</i>
   <i type="int" name="NOMEGA">     0</i>
   <i type="int" name="NOMEGAR">     0</i>
   <i type="int" name="NBANDSGW">    -1</i>
   <i type="int" name="NBANDSO">    -1</i>
   <i type="int" name="NBANDSV">    -1</i>
   <i type="int" name="NELM">   300</i>
   <i type="int" name="NELMHF">     1</i>
   <i type="int" name="DIM">     3</i>
   <i type="int" name="ANTIRES">     0</i>
   <i name="OMEGAMAX">    -30.00000000</i>
   <i name="OMEGAMIN">    -30.00000000</i>
   <i name="OMEGATL">   -200.00000000</i>
   <i type="int" name="OMEGAGRID">   140</i>
   <i name="CSHIFT">     -0.10000000</i>
   <i type="logical" name="SELFENERGY"> F  </i>
   <i type="logical" name="LSPECTRAL"> F  </i>
   <i type="logical" name="LSPECTRALGW"> F  </i>
   <i type="logical" name="LSINGLES"> F  </i>
   <i type="logical" name="LFERMIGW"> F  </i>
   <i type="logical" name="ODDONLYGW"> F  </i>
   <i type="logical" name="EVENONLYGW"> F  </i>
   <i type="int" name="NKREDLFX">     1</i>
   <i type="int" name="NKREDLFY">     1</i>
   <i type="int" name="NKREDLFZ">     1</i>
   <i type="int" name="MAXMEM">  2800</i>
   <i type="int" name="TELESCOPE">     0</i>
   <i type="int" name="TAUPAR">     1</i>
   <i type="int" name="OMEGAPAR">    -1</i>
   <i name="LAMBDA">      1.00000000</i>
  </separator>
  <separator name="External order field" >
   <i name="OFIELD_KAPPA">      0.00000000</i>
   <v name="OFIELD_K">      0.00000000      0.00000000      0.00000000</v>
   <i name="OFIELD_Q6_NEAR">      0.00000000</i>
   <i name="OFIELD_Q6_FAR">      0.00000000</i>
   <i name="OFIELD_A">      0.00000000</i>
  </separator>
 </parameters>
 <atominfo>
  <atoms>      67 </atoms>
  <types>       2 </types>
  <array name="atoms" >
   <dimension dim="1">ion</dimension>
   <field type="string">element</field>
   <field type="int">atomtype</field>
   <set>
    <rc><c>Ti</c><c>   1</c></rc>
    <rc><c>Ti</c><c>   1</c></rc>
    <rc><c>Ti</c><c>   1</c></rc>
    <rc><c>Ti</c><c>   1</c></rc>
    <rc><c>Ti</c><c>   1</c></rc>
    <rc><c>Ti</c><c>   1</c></rc>
    <rc><c>Ti</c><c>   1</c></rc>
    <rc><c>Ti</c><c>   1</c></rc>
    <rc><c>Ti</c><c>   1</c></rc>
    <rc><c>Ti</c><c>   1</c></rc>
    <rc><c>Ti</c><c>   1</c></rc>
    <rc><c>Ti</c><c>   1</c></rc>
    <rc><c>Ti</c><c>   1</c></rc>
    <rc><c>Ti</c><c>   1</c></rc>
    <rc><c>Ti</c><c>   1</c></rc>
    <rc><c>Ti</c><c>   1</c></rc>
    <rc><c>Ti</c><c>   1</c></rc>
    <rc><c>Ti</c><c>   1</c></rc>
    <rc><c>Ti</c><c>   1</c></rc>
    <rc><c>Ti</c><c>   1</c></rc>
    <rc><c>Ti</c><c>   1</c></rc>
    <rc><c>Ti</c><c>   1</c></rc>
    <rc><c>Ti</c><c>   1</c></rc>
    <rc><c>Ti</c><c>   1</c></rc>
    <rc><c>Ti</c><c>   1</c></rc>
    <rc><c>Ti</c><c>   1</c></rc>
    <rc><c>Ti</c><c>   1</c></rc>
    <rc><c>Ti</c><c>   1</c></rc>
    <rc><c>Ti</c><c>   1</c></rc>
    <rc><c>Ti</c><c>   1</c></rc>
    <rc><c>Ti</c><c>   1</c></rc>
    <rc><c>Ti</c><c>   1</c></rc>
    <rc><c>Ti</c><c>   1</c></rc>
    <rc><c>Ti</c><c>   1</c></rc>
    <rc><c>Ti</c><c>   1</c></rc>
    <rc><c>Ti</c><c>   1</c></rc>
    <rc><c>Ti</c><c>   1</c></rc>
    <rc><c>Ti</c><c>   1</c></rc>
    <rc><c>Ti</c><c>   1</c></rc>
    <rc><c>Ti</c><c>   1</c></rc>
    <rc><c>Ti</c><c>   1</c></rc>
    <rc><c>Ti</c><c>   1</c></rc>
    <rc><c>Ti</c><c>   1</c></rc>
    <rc><c>Ti</c><c>   1</c></rc>
    <rc><c>Ti</c><c>   1</c></rc>
    <rc><c>Ti</c><c>   1</c></rc>
    <rc><c>Ti</c><c>   1</c></rc>
    <rc><c>Ti</c><c>   1</c></rc>
    <rc><c>Ti</c><c>   1</c></rc>
    <rc><c>Ti</c><c>   1</c></rc>
    <rc><c>Ti</c><c>   1</c></rc>
    <rc><c>Ti</c><c>   1</c></rc>
    <rc><c>Ti</c><c>   1</c></rc>
    <rc><c>Ti</c><c>   1</c></rc>
    <rc><c>Ti</c><c>   1</c></rc>
    <rc><c>Ti</c><c>   1</c></rc>
    <rc><c>Ti</c><c>   1</c></rc>
    <rc><c>Ti</c><c>   1</c></rc>
    <rc><c>Ti</c><c>   1</c></rc>
    <rc><c>Ti</c><c>   1</c></rc>
    <rc><c>Ti</c><c>   1</c></rc>
    <rc><c>Ti</c><c>   1</c></rc>
    <rc><c>Ti</c><c>   1</c></rc>
    <rc><c>Ti</c><c>   1</c></rc>
    <rc><c>Ti</c><c>   1</c></rc>
    <rc><c>Ti</c><c>   1</c></rc>
    <rc><c>Al</c><c>   2</c></rc>
   </set>
  </array>
  <array name="atomtypes" >
   <dimension dim="1">type</dimension>
   <field type="int">atomspertype</field>
   <field type="string">element</field>
   <field>mass</field>
   <field>valence</field>
   <field type="string">pseudopotential</field>
   <set>
    <rc><c>  66</c><c>Ti</c><c>     47.88000000</c><c>      4.00000000</c><c>  PAW_PBE Ti 08Apr2002                  </c></rc>
    <rc><c>   1</c><c>Al</c><c>     26.98100000</c><c>      3.00000000</c><c>  PAW_PBE Al 04Jan2001                  </c></rc>
   </set>
  </array>
 </atominfo>
 <structure name="initialpos" >
  <crystal>
   <varray name="basis" >
    <v>       6.30976000       0.00000000       0.00000000 </v>
    <v>       0.00000000       9.46464000       0.00000000 </v>
    <v>       0.00000000       0.00000000      18.91832600 </v>
   </varray>
   <i name="volume">   1129.79499167 </i>
   <varray name="rec_basis" >
    <v>       0.15848463       0.00000000       0.00000000 </v>
    <v>       0.00000000       0.10565642       0.00000000 </v>
    <v>       0.00000000       0.00000000       0.05285880 </v>
   </varray>
  </crystal>
  <varray name="positions" >
   <v>       0.62500000       0.04166700       0.50000000 </v>
   <v>       0.12500000       0.04166700       0.65857600 </v>
   <v>       0.62500000       0.04166700       0.65857600 </v>
   <v>       0.12500000       0.04166700       0.81715300 </v>
   <v>       0.62500000       0.04166700       0.81715300 </v>
   <v>       0.12500000       0.37500000       0.50000000 </v>
   <v>       0.62500000       0.37500000       0.50000000 </v>
   <v>       0.12500000       0.37500000       0.65857600 </v>
   <v>       0.62500000       0.37500000       0.65857600 </v>
   <v>       0.12500000       0.37500000       0.81715300 </v>
   <v>       0.62500000       0.37500000       0.81715300 </v>
   <v>       0.12500000       0.70833300       0.50000000 </v>
   <v>       0.62500000       0.70833300       0.50000000 </v>
   <v>       0.12500000       0.70833300       0.65857600 </v>
   <v>       0.62500000       0.70833300       0.65857600 </v>
   <v>       0.12500000       0.70833300       0.81715300 </v>
   <v>       0.62500000       0.70833300       0.81715300 </v>
   <v>       0.37500000       0.20833300       0.57928800 </v>
   <v>       0.87500000       0.20833300       0.57928800 </v>
   <v>       0.37500000       0.20833300       0.73786500 </v>
   <v>       0.87500000       0.20833300       0.73786500 </v>
   <v>       0.37500000       0.20833300       0.89644100 </v>
   <v>       0.87500000       0.20833300       0.89644100 </v>
   <v>       0.37500000       0.54166700       0.57928800 </v>
   <v>       0.87500000       0.54166700       0.57928800 </v>
   <v>       0.37500000       0.54166700       0.73786500 </v>
   <v>       0.87500000       0.54166700       0.73786500 </v>
   <v>       0.37500000       0.54166700       0.89644100 </v>
   <v>       0.87500000       0.54166700       0.89644100 </v>
   <v>       0.37500000       0.87500000       0.57928800 </v>
   <v>       0.87500000       0.87500000       0.57928800 </v>
   <v>       0.37500000       0.87500000       0.73786500 </v>
   <v>       0.87500000       0.87500000       0.73786500 </v>
   <v>       0.37500000       0.87500000       0.89644100 </v>
   <v>       0.87500000       0.87500000       0.89644100 </v>
   <v>       0.12500000       0.62500000       0.35679700 </v>
   <v>       0.62500000       0.62500000       0.35679700 </v>
   <v>       0.12500000       0.62500000       0.11893200 </v>
   <v>       0.62500000       0.62500000       0.11893200 </v>
   <v>       0.62500000       0.12500000       0.35679700 </v>
   <v>       0.12500000       0.12500000       0.11893200 </v>
   <v>       0.62500000       0.12500000       0.11893200 </v>
   <v>       0.12500000       0.37500000       0.03964400 </v>
   <v>       0.62500000       0.37500000       0.03964400 </v>
   <v>       0.12500000       0.87500000       0.03964400 </v>
   <v>       0.62500000       0.87500000       0.03964400 </v>
   <v>       0.12500000       0.37500000       0.27750900 </v>
   <v>       0.62500000       0.37500000       0.27750900 </v>
   <v>       0.12500000       0.87500000       0.27750900 </v>
   <v>       0.62500000       0.87500000       0.27750900 </v>
   <v>       0.37500000       0.87500000       0.15857600 </v>
   <v>       0.87500000       0.87500000       0.15857600 </v>
   <v>       0.37499900       0.37500000       0.15857600 </v>
   <v>       0.87499900       0.37500000       0.15857600 </v>
   <v>       0.37500000       0.37500000       0.39644100 </v>
   <v>       0.87500000       0.37500000       0.39644100 </v>
   <v>       0.37500000       0.87500000       0.39644100 </v>
   <v>       0.87500000       0.87500000       0.39644100 </v>
   <v>       0.37500000       0.62500000       0.23786400 </v>
   <v>       0.87500000       0.62500000       0.23786400 </v>
   <v>       0.37500000       0.62500000       0.00000000 </v>
   <v>       0.87500000       0.62500000       0.00000000 </v>
   <v>       0.37500000       0.12500000       0.23786500 </v>
   <v>       0.87500000       0.12500000       0.23786500 </v>
   <v>       0.37500000       0.12500000       0.00000000 </v>
   <v>       0.87500000       0.12500000       0.00000000 </v>
   <v>       0.12500000       0.04166700       0.50000000 </v>
  </varray>
  <varray name="selective"  type="logical" >
   <v type="logical" >  F  F  F </v>
   <v type="logical" >  F  F  F </v>
   <v type="logical" >  F  F  F </v>
   <v type="logical" >  F  F  F </v>
   <v type="logical" >  F  F  F </v>
   <v type="logical" >  F  F  F </v>
   <v type="logical" >  F  F  F </v>
   <v type="logical" >  F  F  F </v>
   <v type="logical" >  F  F  F </v>
   <v type="logical" >  F  F  F </v>
   <v type="logical" >  F  F  F </v>
   <v type="logical" >  F  F  F </v>
   <v type="logical" >  F  F  F </v>
   <v type="logical" >  F  F  F </v>
   <v type="logical" >  F  F  F </v>
   <v type="logical" >  F  F  F </v>
   <v type="logical" >  F  F  F </v>
   <v type="logical" >  F  F  F </v>
   <v type="logical" >  F  F  F </v>
   <v type="logical" >  F  F  F </v>
   <v type="logical" >  F  F  F </v>
   <v type="logical" >  F  F  F </v>
   <v type="logical" >  F  F  F </v>
   <v type="logical" >  F  F  F </v>
   <v type="logical" >  F  F  F </v>
   <v type="logical" >  F  F  F </v>
   <v type="logical" >  F  F  F </v>
   <v type="logical" >  F  F  F </v>
   <v type="logical" >  F  F  F </v>
   <v type="logical" >  F  F  F </v>
   <v type="logical" >  F  F  F </v>
   <v type="logical" >  F  F  F </v>
   <v type="logical" >  F  F  F </v>
   <v type="logical" >  F  F  F </v>
   <v type="logical" >  F  F  F </v>
   <v type="logical" >  F  F  F </v>
   <v type="logical" >  F  F  F </v>
   <v type="logical" >  F  F  F </v>
   <v type="logical" >  F  F  F </v>
   <v type="logical" >  F  F  F </v>
   <v type="logical" >  F  F  F </v>
   <v type="logical" >  F  F  F </v>
   <v type="logical" >  F  F  F </v>
   <v type="logical" >  F  F  F </v>
   <v type="logical" >  F  F  F </v>
   <v type="logical" >  F  F  F </v>
   <v type="logical" >  F  F  F </v>
   <v type="logical" >  F  F  F </v>
   <v type="logical" >  F  F  F </v>
   <v type="logical" >  F  F  F </v>
   <v type="logical" >  F  F  F </v>
   <v type="logical" >  F  F  F </v>
   <v type="logical" >  F  F  F </v>
   <v type="logical" >  F  F  F </v>
   <v type="logical" >  F  F  F </v>
   <v type="logical" >  F  F  F </v>
   <v type="logical" >  F  F  F </v>
   <v type="logical" >  F  F  F </v>
   <v type="logical" >  F  F  F </v>
   <v type="logical" >  F  F  F </v>
   <v type="logical" >  F  F  F </v>
   <v type="logical" >  F  F  F </v>
   <v type="logical" >  F  F  F </v>
   <v type="logical" >  F  F  F </v>
   <v type="logical" >  F  F  F </v>
   <v type="logical" >  F  F  F </v>
   <v type="logical" >  T  T  T </v>
  </varray>
  <nose>
   <v>      -3.00000000       0.00000000       0.00010000       0.00010000 </v>
  </nose>
 </structure>
 <calculation>
  <scstep>
   <time name="dav">    4.29    4.30</time>
   <time name="total">    4.36    4.43</time>
   <energy>
    <i name="alphaZ">   1373.97392322 </i>
    <i name="ewald">  -8194.63949566 </i>
    <i name="hartreedc">   -865.56768301 </i>
    <i name="XCdc">  -2405.89976608 </i>
    <i name="pawpsdc">   8284.42552317 </i>
    <i name="pawaedc">  -5630.62157508 </i>
    <i name="eentropy">     -0.00299144 </i>
    <i name="bandstr">   2157.65721854 </i>
    <i name="atom">   6309.81913796 </i>
    <i name="e_fr_energy">   1029.14429161 </i>
    <i name="e_wo_entrp">   1029.14728304 </i>
    <i name="e_0_energy">   1029.14528875 </i>
   </energy>
  </scstep>
  <scstep>
   <time name="dav">    4.27    4.27</time>
   <time name="total">    4.27    4.28</time>
   <energy>
    <i name="e_fr_energy">   -360.47348121 </i>
    <i name="e_wo_entrp">   -360.47298792 </i>
    <i name="e_0_energy">   -360.47331678 </i>
   </energy>
  </scstep>
  <scstep>
   <time name="dav">    5.90    5.91</time>
   <time name="total">    5.90    5.91</time>
   <energy>
    <i name="e_fr_energy">   -569.77103490 </i>
    <i name="e_wo_entrp">   -569.77004678 </i>
    <i name="e_0_energy">   -569.77070553 </i>
   </energy>
  </scstep>
  <scstep>
   <time name="dav">    5.86    5.87</time>
   <time name="total">    5.87    5.88</time>
   <energy>
    <i name="e_fr_energy">   -586.53796806 </i>
    <i name="e_wo_entrp">   -586.53513404 </i>
    <i name="e_0_energy">   -586.53702338 </i>
   </energy>
  </scstep>
  <scstep>
   <time name="dav">    5.79    5.80</time>
   <time name="total">    6.01    6.02</time>
   <energy>
    <i name="e_fr_energy">   -587.23807810 </i>
    <i name="e_wo_entrp">   -587.23527050 </i>
    <i name="e_0_energy">   -587.23714223 </i>
   </energy>
  </scstep>
  <scstep>
   <time name="dav">    7.53    7.54</time>
   <time name="total">    7.79    7.80</time>
   <energy>
    <i name="e_fr_energy">  -1600.08297427 </i>
    <i name="e_wo_entrp">  -1600.08584887 </i>
    <i name="e_0_energy">  -1600.08393247 </i>
   </energy>
  </scstep>
  <scstep>
   <time name="dav">    7.06    7.07</time>
   <time name="total">    7.33    7.34</time>
   <energy>
    <i name="e_fr_energy">   -588.49469614 </i>
    <i name="e_wo_entrp">   -588.49595758 </i>
    <i name="e_0_energy">   -588.49511662 </i>
   </energy>
  </scstep>
  <scstep>
   <time name="dav">    6.33    6.35</time>
   <time name="total">    6.61    6.63</time>
   <energy>
    <i name="e_fr_energy">   -536.97121028 </i>
    <i name="e_wo_entrp">   -536.96785787 </i>
    <i name="e_0_energy">   -536.97009281 </i>
   </energy>
  </scstep>
  <scstep>
   <time name="dav">    6.92    6.93</time>
   <time name="total">    7.20    7.21</time>
   <energy>
    <i name="e_fr_energy">   -576.19337215 </i>
    <i name="e_wo_entrp">   -576.19151885 </i>
    <i name="e_0_energy">   -576.19275438 </i>
   </energy>
  </scstep>
  <scstep>
   <time name="dav">    6.71    6.72</time>
   <time name="total">    6.99    7.00</time>
   <energy>
    <i name="e_fr_energy">   -528.59926880 </i>
    <i name="e_wo_entrp">   -528.60005233 </i>
    <i name="e_0_energy">   -528.59952998 </i>
   </energy>
  </scstep>
  <scstep>
   <time name="dav">    6.33    6.34</time>
   <time name="total">    6.61    6.62</time>
   <energy>
    <i name="e_fr_energy">   -524.78430763 </i>
    <i name="e_wo_entrp">   -524.78639927 </i>
    <i name="e_0_energy">   -524.78500485 </i>
   </energy>
  </scstep>
  <scstep>
   <time name="dav">    6.32    6.33</time>
   <time name="total">    6.60    6.61</time>
   <energy>
    <i name="e_fr_energy">   -521.22874144 </i>
    <i name="e_wo_entrp">   -521.23009174 </i>
    <i name="e_0_energy">   -521.22919154 </i>
   </energy>
  </scstep>
  <scstep>
   <time name="dav">    5.93    5.95</time>
   <time name="total">    6.22    6.23</time>
   <energy>
    <i name="e_fr_energy">   -516.65829621 </i>
    <i name="e_wo_entrp">   -516.65440251 </i>
    <i name="e_0_energy">   -516.65699831 </i>
   </energy>
  </scstep>
  <scstep>
   <time name="dav">    6.08    6.10</time>
   <time name="total">    6.37    6.38</time>
   <energy>
    <i name="e_fr_energy">   -511.39511294 </i>
    <i name="e_wo_entrp">   -511.39433646 </i>
    <i name="e_0_energy">   -511.39485411 </i>
   </energy>
  </scstep>
  <scstep>
   <time name="dav">    6.19    6.20</time>
   <time name="total">    6.47    6.48</time>
   <energy>
    <i name="e_fr_energy">   -502.72838368 </i>
    <i name="e_wo_entrp">   -502.73171151 </i>
    <i name="e_0_energy">   -502.72949296 </i>
   </energy>
  </scstep>
  <scstep>
   <time name="dav">    5.68    5.69</time>
   <time name="total">    5.97    5.98</time>
   <energy>
    <i name="e_fr_energy">   -501.40327812 </i>
    <i name="e_wo_entrp">   -501.40357521 </i>
    <i name="e_0_energy">   -501.40337715 </i>
   </energy>
  </scstep>
  <scstep>
   <time name="dav">    6.15    6.16</time>
   <time name="total">    6.43    6.44</time>
   <energy>
    <i name="e_fr_energy">   -501.00096878 </i>
    <i name="e_wo_entrp">   -500.99999961 </i>
    <i name="e_0_energy">   -501.00064573 </i>
   </energy>
  </scstep>
  <scstep>
   <time name="dav">    6.26    6.27</time>
   <time name="total">    6.54    6.56</time>
   <energy>
    <i name="e_fr_energy">   -500.79752458 </i>
    <i name="e_wo_entrp">   -500.79551491 </i>
    <i name="e_0_energy">   -500.79685469 </i>
   </energy>
  </scstep>
  <scstep>
   <time name="dav">    6.07    6.08</time>
   <time name="total">    6.35    6.36</time>
   <energy>
    <i name="e_fr_energy">   -500.29045609 </i>
    <i name="e_wo_entrp">   -500.29008934 </i>
    <i name="e_0_energy">   -500.29033384 </i>
   </energy>
  </scstep>
  <scstep>
   <time name="dav">    6.03    6.04</time>
   <time name="total">    6.32    6.33</time>
   <energy>
    <i name="e_fr_energy">   -499.62752908 </i>
    <i name="e_wo_entrp">   -499.62213103 </i>
    <i name="e_0_energy">   -499.62572973 </i>
   </energy>
  </scstep>
  <scstep>
   <time name="dav">    5.97    5.98</time>
   <time name="total">    6.26    6.28</time>
   <energy>
    <i name="e_fr_energy">   -499.52111291 </i>
    <i name="e_wo_entrp">   -499.51549162 </i>
    <i name="e_0_energy">   -499.51923915 </i>
   </energy>
  </scstep>
  <scstep>
   <time name="dav">    6.08    6.08</time>
   <time name="total">    6.36    6.37</time>
   <energy>
    <i name="e_fr_energy">   -499.45839557 </i>
    <i name="e_wo_entrp">   -499.45408210 </i>
    <i name="e_0_energy">   -499.45695775 </i>
   </energy>
  </scstep>
  <scstep>
   <time name="dav">    6.03    6.03</time>
   <time name="total">    6.31    6.32</time>
   <energy>
    <i name="e_fr_energy">   -499.37964446 </i>
    <i name="e_wo_entrp">   -499.37451245 </i>
    <i name="e_0_energy">   -499.37793379 </i>
   </energy>
  </scstep>
  <scstep>
   <time name="dav">    6.20    6.21</time>
   <time name="total">    6.48    6.50</time>
   <energy>
    <i name="e_fr_energy">   -499.32021140 </i>
    <i name="e_wo_entrp">   -499.31589087 </i>
    <i name="e_0_energy">   -499.31877123 </i>
   </energy>
  </scstep>
  <scstep>
   <time name="dav">    6.13    6.14</time>
   <time name="total">    6.42    6.43</time>
   <energy>
    <i name="e_fr_energy">   -499.29788488 </i>
    <i name="e_wo_entrp">   -499.29452794 </i>
    <i name="e_0_energy">   -499.29676590 </i>
   </energy>
  </scstep>
  <scstep>
   <time name="dav">    6.00    6.01</time>
   <time name="total">    6.29    6.29</time>
   <energy>
    <i name="e_fr_energy">   -499.29643745 </i>
    <i name="e_wo_entrp">   -499.29340898 </i>
    <i name="e_0_energy">   -499.29542796 </i>
   </energy>
  </scstep>
  <scstep>
   <time name="dav">    6.08    6.09</time>
   <time name="total">    6.38    6.39</time>
   <energy>
    <i name="e_fr_energy">   -499.29576241 </i>
    <i name="e_wo_entrp">   -499.29270005 </i>
    <i name="e_0_energy">   -499.29474162 </i>
   </energy>
  </scstep>
  <scstep>
   <time name="dav">    6.01    6.02</time>
   <time name="total">    6.30    6.30</time>
   <energy>
    <i name="e_fr_energy">   -499.29510848 </i>
    <i name="e_wo_entrp">   -499.29207736 </i>
    <i name="e_0_energy">   -499.29409810 </i>
   </energy>
  </scstep>
  <scstep>
   <time name="dav">    6.12    6.13</time>
   <time name="total">    6.40    6.42</time>
   <energy>
    <i name="e_fr_energy">   -499.29466623 </i>
    <i name="e_wo_entrp">   -499.29154308 </i>
    <i name="e_0_energy">   -499.29362518 </i>
   </energy>
  </scstep>
  <scstep>
   <time name="dav">    6.09    6.09</time>
   <time name="total">    6.37    6.38</time>
   <energy>
    <i name="e_fr_energy">   -499.29443933 </i>
    <i name="e_wo_entrp">   -499.29131352 </i>
    <i name="e_0_energy">   -499.29339739 </i>
   </energy>
  </scstep>
  <scstep>
   <time name="dav">    6.11    6.11</time>
   <time name="total">    6.39    6.40</time>
   <energy>
    <i name="e_fr_energy">   -499.29425761 </i>
    <i name="e_wo_entrp">   -499.29126523 </i>
    <i name="e_0_energy">   -499.29326015 </i>
   </energy>
  </scstep>
  <scstep>
   <time name="dav">    6.01    6.02</time>
   <time name="total">    6.30    6.31</time>
   <energy>
    <i name="e_fr_energy">   -499.29422338 </i>
    <i name="e_wo_entrp">   -499.29124305 </i>
    <i name="e_0_energy">   -499.29322994 </i>
   </energy>
  </scstep>
  <scstep>
   <time name="dav">    5.94    5.95</time>
   <time name="total">    6.23    6.24</time>
   <energy>
    <i name="e_fr_energy">   -499.29421213 </i>
    <i name="e_wo_entrp">   -499.29121745 </i>
    <i name="e_0_energy">   -499.29321390 </i>
   </energy>
  </scstep>
  <scstep>
   <time name="dav">    5.95    5.96</time>
   <time name="total">    6.24    6.25</time>
   <energy>
    <i name="e_fr_energy">   -499.29420662 </i>
    <i name="e_wo_entrp">   -499.29119039 </i>
    <i name="e_0_energy">   -499.29320121 </i>
   </energy>
  </scstep>
  <scstep>
   <time name="dav">    6.06    6.07</time>
   <time name="total">    6.35    6.36</time>
   <energy>
    <i name="e_fr_energy">   -499.29419952 </i>
    <i name="e_wo_entrp">   -499.29119704 </i>
    <i name="e_0_energy">   -499.29319870 </i>
   </energy>
  </scstep>
  <scstep>
   <time name="dav">    6.08    6.10</time>
   <time name="total">    6.37    6.39</time>
   <energy>
    <i name="e_fr_energy">   -499.29419077 </i>
    <i name="e_wo_entrp">   -499.29121089 </i>
    <i name="e_0_energy">   -499.29319748 </i>
   </energy>
  </scstep>
  <scstep>
   <time name="dav">    5.91    5.92</time>
   <time name="total">    6.20    6.21</time>
   <energy>
    <i name="e_fr_energy">   -499.29418915 </i>
    <i name="e_wo_entrp">   -499.29121650 </i>
    <i name="e_0_energy">   -499.29319827 </i>
   </energy>
  </scstep>
  <scstep>
   <time name="dav">    5.85    5.86</time>
   <time name="total">    6.14    6.15</time>
   <energy>
    <i name="e_fr_energy">   -499.29418839 </i>
    <i name="e_wo_entrp">   -499.29121630 </i>
    <i name="e_0_energy">   -499.29319769 </i>
   </energy>
  </scstep>
  <scstep>
   <time name="dav">    6.14    6.15</time>
   <time name="total">    6.43    6.44</time>
   <energy>
    <i name="e_fr_energy">   -499.29418773 </i>
    <i name="e_wo_entrp">   -499.29121657 </i>
    <i name="e_0_energy">   -499.29319734 </i>
   </energy>
  </scstep>
  <scstep>
   <time name="dav">    6.12    6.13</time>
   <time name="total">    6.41    6.42</time>
   <energy>
    <i name="e_fr_energy">   -499.29418724 </i>
    <i name="e_wo_entrp">   -499.29121953 </i>
    <i name="e_0_energy">   -499.29319800 </i>
   </energy>
  </scstep>
  <scstep>
   <time name="dav">    5.28    5.28</time>
   <time name="total">    5.34    5.35</time>
   <energy>
    <i name="alphaZ">   1373.97392322 </i>
    <i name="ewald">  -8194.63949566 </i>
    <i name="hartreedc">   -621.25434796 </i>
    <i name="XCdc">  -2386.38465375 </i>
    <i name="pawpsdc">  19953.38848746 </i>
    <i name="pawaedc"> -17316.55797700 </i>
    <i name="eentropy">     -0.00296854 </i>
    <i name="bandstr">    382.36370708 </i>
    <i name="atom">   6309.81913796 </i>
    <i name="e_fr_energy">   -499.29418719 </i>
    <i name="e_wo_entrp">   -499.29121865 </i>
    <i name="e_0_energy">   -499.29319768 </i>
   </energy>
  </scstep>
  <structure>
   <crystal>
    <varray name="basis" >
     <v>       6.30976000       0.00000000       0.00000000 </v>
     <v>       0.00000000       9.46464000       0.00000000 </v>
     <v>       0.00000000       0.00000000      18.91832600 </v>
    </varray>
    <i name="volume">   1129.79499167 </i>
    <varray name="rec_basis" >
     <v>       0.15848463       0.00000000       0.00000000 </v>
     <v>       0.00000000       0.10565642       0.00000000 </v>
     <v>       0.00000000       0.00000000       0.05285880 </v>
    </varray>
   </crystal>
   <varray name="positions" >
    <v>       0.62500000       0.04166700       0.50000000 </v>
    <v>       0.12500000       0.04166700       0.65857600 </v>
    <v>       0.62500000       0.04166700       0.65857600 </v>
    <v>       0.12500000       0.04166700       0.81715300 </v>
    <v>       0.62500000       0.04166700       0.81715300 </v>
    <v>       0.12500000       0.37500000       0.50000000 </v>
    <v>       0.62500000       0.37500000       0.50000000 </v>
    <v>       0.12500000       0.37500000       0.65857600 </v>
    <v>       0.62500000       0.37500000       0.65857600 </v>
    <v>       0.12500000       0.37500000       0.81715300 </v>
    <v>       0.62500000       0.37500000       0.81715300 </v>
    <v>       0.12500000       0.70833300       0.50000000 </v>
    <v>       0.62500000       0.70833300       0.50000000 </v>
    <v>       0.12500000       0.70833300       0.65857600 </v>
    <v>       0.62500000       0.70833300       0.65857600 </v>
    <v>       0.12500000       0.70833300       0.81715300 </v>
    <v>       0.62500000       0.70833300       0.81715300 </v>
    <v>       0.37500000       0.20833300       0.57928800 </v>
    <v>       0.87500000       0.20833300       0.57928800 </v>
    <v>       0.37500000       0.20833300       0.73786500 </v>
    <v>       0.87500000       0.20833300       0.73786500 </v>
    <v>       0.37500000       0.20833300       0.89644100 </v>
    <v>       0.87500000       0.20833300       0.89644100 </v>
    <v>       0.37500000       0.54166700       0.57928800 </v>
    <v>       0.87500000       0.54166700       0.57928800 </v>
    <v>       0.37500000       0.54166700       0.73786500 </v>
    <v>       0.87500000       0.54166700       0.73786500 </v>
    <v>       0.37500000       0.54166700       0.89644100 </v>
    <v>       0.87500000       0.54166700       0.89644100 </v>
    <v>       0.37500000       0.87500000       0.57928800 </v>
    <v>       0.87500000       0.87500000       0.57928800 </v>
    <v>       0.37500000       0.87500000       0.73786500 </v>
    <v>       0.87500000       0.87500000       0.73786500 </v>
    <v>       0.37500000       0.87500000       0.89644100 </v>
    <v>       0.87500000       0.87500000       0.89644100 </v>
    <v>       0.12500000       0.62500000       0.35679700 </v>
    <v>       0.62500000       0.62500000       0.35679700 </v>
    <v>       0.12500000       0.62500000       0.11893200 </v>
    <v>       0.62500000       0.62500000       0.11893200 </v>
    <v>       0.62500000       0.12500000       0.35679700 </v>
    <v>       0.12500000       0.12500000       0.11893200 </v>
    <v>       0.62500000       0.12500000       0.11893200 </v>
    <v>       0.12500000       0.37500000       0.03964400 </v>
    <v>       0.62500000       0.37500000       0.03964400 </v>
    <v>       0.12500000       0.87500000       0.03964400 </v>
    <v>       0.62500000       0.87500000       0.03964400 </v>
    <v>       0.12500000       0.37500000       0.27750900 </v>
    <v>       0.62500000       0.37500000       0.27750900 </v>
    <v>       0.12500000       0.87500000       0.27750900 </v>
    <v>       0.62500000       0.87500000       0.27750900 </v>
    <v>       0.37500000       0.87500000       0.15857600 </v>
    <v>       0.87500000       0.87500000       0.15857600 </v>
    <v>       0.37499900       0.37500000       0.15857600 </v>
    <v>       0.87499900       0.37500000       0.15857600 </v>
    <v>       0.37500000       0.37500000       0.39644100 </v>
    <v>       0.87500000       0.37500000       0.39644100 </v>
    <v>       0.37500000       0.87500000       0.39644100 </v>
    <v>       0.87500000       0.87500000       0.39644100 </v>
    <v>       0.37500000       0.62500000       0.23786400 </v>
    <v>       0.87500000       0.62500000       0.23786400 </v>
    <v>       0.37500000       0.62500000       0.00000000 </v>
    <v>       0.87500000       0.62500000       0.00000000 </v>
    <v>       0.37500000       0.12500000       0.23786500 </v>
    <v>       0.87500000       0.12500000       0.23786500 </v>
    <v>       0.37500000       0.12500000       0.00000000 </v>
    <v>       0.87500000       0.12500000       0.00000000 </v>
    <v>       0.12500000       0.04166700       0.50000000 </v>
   </varray>
  </structure>
  <varray name="forces" >
   <v>      -0.00000000       0.00191764      -1.06277865 </v>
   <v>       0.00000000       0.02483332       0.32455375 </v>
   <v>      -0.00000000       0.04899524      -0.27245166 </v>
   <v>       0.00000000      -0.20188504       0.14535112 </v>
   <v>      -0.00000000      -0.10718351       0.18128445 </v>
   <v>      -0.00000000       0.05791221       0.24466055 </v>
   <v>      -0.00000000      -0.07205194       0.10500014 </v>
   <v>       0.00000000      -0.16799631      -0.13134390 </v>
   <v>       0.00000000      -0.01665571      -0.00618839 </v>
   <v>       0.00000000       0.01064974      -0.06275945 </v>
   <v>       0.00000000      -0.08234740      -0.06320121 </v>
   <v>      -0.00000000       0.02324670      -1.29509844 </v>
   <v>      -0.00000000      -0.01381606      -1.33429456 </v>
   <v>       0.00000000       0.14878840      -0.16076306 </v>
   <v>       0.00000000       0.01512982      -0.13824679 </v>
   <v>      -0.00000000       0.11937959       0.13722813 </v>
   <v>      -0.00000000       0.19159823       0.19497127 </v>
   <v>       0.10495741       0.27219152      -0.24413317 </v>
   <v>      -0.10495741       0.27219152      -0.24413317 </v>
   <v>      -0.10055744       0.05993073       0.08761551 </v>
   <v>       0.10055744       0.05993073       0.08761551 </v>
   <v>       0.02571884       1.37674374       0.10285648 </v>
   <v>      -0.02571884       1.37674374       0.10285648 </v>
   <v>      -0.11808400      -0.21211982      -0.03738044 </v>
   <v>       0.11808400      -0.21211982      -0.03738044 </v>
   <v>       0.01885820      -0.06344716       0.25189045 </v>
   <v>      -0.01885820      -0.06344716       0.25189045 </v>
   <v>       0.00404371      -1.36107180       0.04566129 </v>
   <v>      -0.00404371      -1.36107180       0.04566129 </v>
   <v>       0.32149836      -0.17083677      -0.18210320 </v>
   <v>      -0.32149836      -0.17083677      -0.18210320 </v>
   <v>      -0.12300171      -0.01281523       0.13348336 </v>
   <v>       0.12300171      -0.01281523       0.13348336 </v>
   <v>       0.00752447      -0.00208455       1.41844868 </v>
   <v>      -0.00752447      -0.00208455       1.41844868 </v>
   <v>       0.00000000       0.14850458       0.66587760 </v>
   <v>      -0.00000000       0.11901797       0.78328738 </v>
   <v>       0.00000000      -0.00591737       0.20722400 </v>
   <v>      -0.00000000       0.00634960       0.15728977 </v>
   <v>      -0.00000000      -0.13870662       0.27961424 </v>
   <v>       0.00000000      -0.01599919       0.32638160 </v>
   <v>      -0.00000000       0.01903813       0.30148896 </v>
   <v>      -0.00000000       0.00460160      -1.91635580 </v>
   <v>       0.00000000       0.01149882      -1.94412666 </v>
   <v>       0.00000000       0.00271775      -0.73399092 </v>
   <v>       0.00000000      -0.00824568      -0.75106875 </v>
   <v>      -0.00000000       0.06584485       0.01747864 </v>
   <v>      -0.00000000      -0.14254241       0.05110528 </v>
   <v>       0.00000000      -0.09626874      -0.20110737 </v>
   <v>      -0.00000000       0.15194467      -0.29023726 </v>
   <v>      -0.13229472       0.09164465      -0.49756495 </v>
   <v>       0.13229472       0.09164465      -0.49756495 </v>
   <v>      -0.11336926      -0.08353041      -0.49984960 </v>
   <v>       0.11336926      -0.08353041      -0.49984960 </v>
   <v>       0.19102416      -0.00780593      -0.22815518 </v>
   <v>      -0.19102416      -0.00780593      -0.22815518 </v>
   <v>       0.33218610      -0.03490967       0.53473298 </v>
   <v>      -0.33218610      -0.03490967       0.53473298 </v>
   <v>      -0.15124283       0.05277644       0.79505727 </v>
   <v>       0.15124283       0.05277644       0.79505727 </v>
   <v>      -0.00115062       1.18254843       0.60043931 </v>
   <v>       0.00115062       1.18254843       0.60043931 </v>
   <v>       0.39318751      -0.02905155       0.87846542 </v>
   <v>      -0.39318751      -0.02905155       0.87846542 </v>
   <v>      -0.00867894      -1.19873510       0.55530722 </v>
   <v>       0.00867894      -1.19873510       0.55530722 </v>
   <v>      -0.00000000       0.17879207      -1.18832688 </v>
  </varray>
  <varray name="stress" >
   <v>      -7.32839687       0.00000000       0.00000000 </v>
   <v>       0.00000000       4.16782560      -1.89655904 </v>
   <v>       0.00000000      -1.89655904      43.09678919 </v>
  </varray>
  <energy>
   <i name="e_fr_energy">   -499.29418719 </i>
   <i name="e_wo_entrp">   -499.29319768 </i>
   <i name="e_0_energy">     -0.00296854 </i>
  </energy>
  <time name="totalsc">  264.31  265.19</time>
 </calculation>
 <calculation>
  <scstep>
   <time name="dav">    4.36    4.37</time>
   <time name="total">    4.65    4.73</time>
   <energy>
    <i name="alphaZ">   1373.97392322 </i>
    <i name="ewald">  -8198.66782403 </i>
    <i name="hartreedc">   -617.67345094 </i>
    <i name="XCdc">  -2386.40441535 </i>
    <i name="pawpsdc">  19953.30334154 </i>
    <i name="pawaedc"> -17316.47369388 </i>
    <i name="eentropy">     -0.00332809 </i>
    <i name="bandstr">    382.76861538 </i>
    <i name="atom">   6309.81913796 </i>
    <i name="e_fr_energy">   -499.35769420 </i>
    <i name="e_wo_entrp">   -499.35436611 </i>
    <i name="e_0_energy">   -499.35658484 </i>
   </energy>
  </scstep>
  <scstep>
   <time name="dav">    6.34    6.34</time>
   <time name="total">    6.62    6.63</time>
   <energy>
    <i name="e_fr_energy">   -499.47524086 </i>
    <i name="e_wo_entrp">   -499.47530084 </i>
    <i name="e_0_energy">   -499.47526085 </i>
   </energy>
  </scstep>
  <scstep>
   <time name="dav">    7.14    7.15</time>
   <time name="total">    7.42    7.44</time>
   <energy>
    <i name="e_fr_energy">   -499.37646630 </i>
    <i name="e_wo_entrp">   -499.37222377 </i>
    <i name="e_0_energy">   -499.37505213 </i>
   </energy>
  </scstep>
  <scstep>
   <time name="dav">    6.28    6.29</time>
   <time name="total">    6.57    6.57</time>
   <energy>
    <i name="e_fr_energy">   -499.35584875 </i>
    <i name="e_wo_entrp">   -499.35261257 </i>
    <i name="e_0_energy">   -499.35477002 </i>
   </energy>
  </scstep>
  <scstep>
   <time name="dav">    6.07    6.08</time>
   <time name="total">    6.36    6.36</time>
   <energy>
    <i name="e_fr_energy">   -499.35598107 </i>
    <i name="e_wo_entrp">   -499.35288322 </i>
    <i name="e_0_energy">   -499.35494845 </i>
   </energy>
  </scstep>
  <scstep>
   <time name="dav">    7.12    7.13</time>
   <time name="total">    7.40    7.41</time>
   <energy>
    <i name="e_fr_energy">   -499.35768662 </i>
    <i name="e_wo_entrp">   -499.35410703 </i>
    <i name="e_0_energy">   -499.35649342 </i>
   </energy>
  </scstep>
  <scstep>
   <time name="dav">    7.13    7.14</time>
   <time name="total">    7.41    7.42</time>
   <energy>
    <i name="e_fr_energy">   -499.35580011 </i>
    <i name="e_wo_entrp">   -499.35260772 </i>
    <i name="e_0_energy">   -499.35473598 </i>
   </energy>
  </scstep>
  <scstep>
   <time name="dav">    6.20    6.21</time>
   <time name="total">    6.48    6.50</time>
   <energy>
    <i name="e_fr_energy">   -499.35587955 </i>
    <i name="e_wo_entrp">   -499.35264843 </i>
    <i name="e_0_energy">   -499.35480251 </i>
   </energy>
  </scstep>
  <scstep>
   <time name="dav">    6.12    6.13</time>
   <time name="total">    6.41    6.42</time>
   <energy>
    <i name="e_fr_energy">   -499.35548691 </i>
    <i name="e_wo_entrp">   -499.35227902 </i>
    <i name="e_0_energy">   -499.35441761 </i>
   </energy>
  </scstep>
  <scstep>
   <time name="dav">    5.95    5.96</time>
   <time name="total">    6.23    6.24</time>
   <energy>
    <i name="e_fr_energy">   -499.35536790 </i>
    <i name="e_wo_entrp">   -499.35221403 </i>
    <i name="e_0_energy">   -499.35431661 </i>
   </energy>
  </scstep>
  <scstep>
   <time name="dav">    5.93    5.93</time>
   <time name="total">    6.21    6.22</time>
   <energy>
    <i name="e_fr_energy">   -499.35534877 </i>
    <i name="e_wo_entrp">   -499.35214936 </i>
    <i name="e_0_energy">   -499.35428230 </i>
   </energy>
  </scstep>
  <scstep>
   <time name="dav">    5.94    5.95</time>
   <time name="total">    6.23    6.24</time>
   <energy>
    <i name="e_fr_energy">   -499.35533729 </i>
    <i name="e_wo_entrp">   -499.35214735 </i>
    <i name="e_0_energy">   -499.35427398 </i>
   </energy>
  </scstep>
  <scstep>
   <time name="dav">    5.94    5.95</time>
   <time name="total">    6.22    6.23</time>
   <energy>
    <i name="e_fr_energy">   -499.35533714 </i>
    <i name="e_wo_entrp">   -499.35213419 </i>
    <i name="e_0_energy">   -499.35426949 </i>
   </energy>
  </scstep>
  <scstep>
   <time name="dav">    5.99    6.00</time>
   <time name="total">    6.28    6.29</time>
   <energy>
    <i name="e_fr_energy">   -499.35533728 </i>
    <i name="e_wo_entrp">   -499.35214160 </i>
    <i name="e_0_energy">   -499.35427205 </i>
   </energy>
  </scstep>
  <scstep>
   <time name="dav">    5.95    5.97</time>
   <time name="total">    6.24    6.25</time>
   <energy>
    <i name="e_fr_energy">   -499.35533429 </i>
    <i name="e_wo_entrp">   -499.35213839 </i>
    <i name="e_0_energy">   -499.35426899 </i>
   </energy>
  </scstep>
  <scstep>
   <time name="dav">    5.91    5.92</time>
   <time name="total">    6.20    6.21</time>
   <energy>
    <i name="e_fr_energy">   -499.35533386 </i>
    <i name="e_wo_entrp">   -499.35213012 </i>
    <i name="e_0_energy">   -499.35426594 </i>
   </energy>
  </scstep>
  <scstep>
   <time name="dav">    5.91    5.92</time>
   <time name="total">    6.19    6.20</time>
   <energy>
    <i name="e_fr_energy">   -499.35533371 </i>
    <i name="e_wo_entrp">   -499.35213553 </i>
    <i name="e_0_energy">   -499.35426765 </i>
   </energy>
  </scstep>
  <scstep>
   <time name="dav">    5.54    5.55</time>
   <time name="total">    5.83    5.83</time>
   <energy>
    <i name="e_fr_energy">   -499.35533364 </i>
    <i name="e_wo_entrp">   -499.35213345 </i>
    <i name="e_0_energy">   -499.35426691 </i>
   </energy>
  </scstep>
  <scstep>
   <time name="dav">    4.44    4.44</time>
   <time name="total">    4.50    4.51</time>
   <energy>
    <i name="alphaZ">   1373.97392322 </i>
    <i name="ewald">  -8198.66782403 </i>
    <i name="hartreedc">   -617.53540465 </i>
    <i name="XCdc">  -2386.41327718 </i>
    <i name="pawpsdc">  19940.73223246 </i>
    <i name="pawaedc"> -17303.87499510 </i>
    <i name="eentropy">     -0.00319920 </i>
    <i name="bandstr">    382.61407286 </i>
    <i name="atom">   6309.81913796 </i>
    <i name="e_fr_energy">   -499.35533366 </i>
    <i name="e_wo_entrp">   -499.35213446 </i>
    <i name="e_0_energy">   -499.35426726 </i>
   </energy>
  </scstep>
  <structure>
   <crystal>
    <varray name="basis" >
     <v>       6.30976000       0.00000000       0.00000000 </v>
     <v>       0.00000000       9.46464000       0.00000000 </v>
     <v>       0.00000000       0.00000000      18.91832600 </v>
    </varray>
    <i name="volume">   1129.79499167 </i>
    <varray name="rec_basis" >
     <v>       0.15848463       0.00000000       0.00000000 </v>
     <v>       0.00000000       0.10565642       0.00000000 </v>
     <v>       0.00000000       0.00000000       0.05285880 </v>
    </varray>
   </crystal>
   <varray name="positions" >
    <v>       0.62500000       0.04166700       0.50000000 </v>
    <v>       0.12500000       0.04166700       0.65857600 </v>
    <v>       0.62500000       0.04166700       0.65857600 </v>
    <v>       0.12500000       0.04166700       0.81715300 </v>
    <v>       0.62500000       0.04166700       0.81715300 </v>
    <v>       0.12500000       0.37500000       0.50000000 </v>
    <v>       0.62500000       0.37500000       0.50000000 </v>
    <v>       0.12500000       0.37500000       0.65857600 </v>
    <v>       0.62500000       0.37500000       0.65857600 </v>
    <v>       0.12500000       0.37500000       0.81715300 </v>
    <v>       0.62500000       0.37500000       0.81715300 </v>
    <v>       0.12500000       0.70833300       0.50000000 </v>
    <v>       0.62500000       0.70833300       0.50000000 </v>
    <v>       0.12500000       0.70833300       0.65857600 </v>
    <v>       0.62500000       0.70833300       0.65857600 </v>
    <v>       0.12500000       0.70833300       0.81715300 </v>
    <v>       0.62500000       0.70833300       0.81715300 </v>
    <v>       0.37500000       0.20833300       0.57928800 </v>
    <v>       0.87500000       0.20833300       0.57928800 </v>
    <v>       0.37500000       0.20833300       0.73786500 </v>
    <v>       0.87500000       0.20833300       0.73786500 </v>
    <v>       0.37500000       0.20833300       0.89644100 </v>
    <v>       0.87500000       0.20833300       0.89644100 </v>
    <v>       0.37500000       0.54166700       0.57928800 </v>
    <v>       0.87500000       0.54166700       0.57928800 </v>
    <v>       0.37500000       0.54166700       0.73786500 </v>
    <v>       0.87500000       0.54166700       0.73786500 </v>
    <v>       0.37500000       0.54166700       0.89644100 </v>
    <v>       0.87500000       0.54166700       0.89644100 </v>
    <v>       0.37500000       0.87500000       0.57928800 </v>
    <v>       0.87500000       0.87500000       0.57928800 </v>
    <v>       0.37500000       0.87500000       0.73786500 </v>
    <v>       0.87500000       0.87500000       0.73786500 </v>
    <v>       0.37500000       0.87500000       0.89644100 </v>
    <v>       0.87500000       0.87500000       0.89644100 </v>
    <v>       0.12500000       0.62500000       0.35679700 </v>
    <v>       0.62500000       0.62500000       0.35679700 </v>
    <v>       0.12500000       0.62500000       0.11893200 </v>
    <v>       0.62500000       0.62500000       0.11893200 </v>
    <v>       0.62500000       0.12500000       0.35679700 </v>
    <v>       0.12500000       0.12500000       0.11893200 </v>
    <v>       0.62500000       0.12500000       0.11893200 </v>
    <v>       0.12500000       0.37500000       0.03964400 </v>
    <v>       0.62500000       0.37500000       0.03964400 </v>
    <v>       0.12500000       0.87500000       0.03964400 </v>
    <v>       0.62500000       0.87500000       0.03964400 </v>
    <v>       0.12500000       0.37500000       0.27750900 </v>
    <v>       0.62500000       0.37500000       0.27750900 </v>
    <v>       0.12500000       0.87500000       0.27750900 </v>
    <v>       0.62500000       0.87500000       0.27750900 </v>
    <v>       0.37500000       0.87500000       0.15857600 </v>
    <v>       0.87500000       0.87500000       0.15857600 </v>
    <v>       0.37499900       0.37500000       0.15857600 </v>
    <v>       0.87499900       0.37500000       0.15857600 </v>
    <v>       0.37500000       0.37500000       0.39644100 </v>
    <v>       0.87500000       0.37500000       0.39644100 </v>
    <v>       0.37500000       0.87500000       0.39644100 </v>
    <v>       0.87500000       0.87500000       0.39644100 </v>
    <v>       0.37500000       0.62500000       0.23786400 </v>
    <v>       0.87500000       0.62500000       0.23786400 </v>
    <v>       0.37500000       0.62500000       0.00000000 </v>
    <v>       0.87500000       0.62500000       0.00000000 </v>
    <v>       0.37500000       0.12500000       0.23786500 </v>
    <v>       0.87500000       0.12500000       0.23786500 </v>
    <v>       0.37500000       0.12500000       0.00000000 </v>
    <v>       0.87500000       0.12500000       0.00000000 </v>
    <v>       0.12500000       0.04257833       0.49696971 </v>
   </varray>
  </structure>
  <varray name="forces" >
   <v>      -0.00000000       0.00071545      -1.08323379 </v>
   <v>      -0.00000000       0.02486211       0.30166604 </v>
   <v>      -0.00000000       0.04785547      -0.28259713 </v>
   <v>      -0.00000000      -0.20176104       0.14121542 </v>
   <v>      -0.00000000      -0.10741184       0.18123085 </v>
   <v>      -0.00000000       0.07136960       0.24123803 </v>
   <v>      -0.00000000      -0.07368762       0.10917728 </v>
   <v>      -0.00000000      -0.17644963      -0.13596197 </v>
   <v>      -0.00000000      -0.02076462      -0.00968958 </v>
   <v>      -0.00000000       0.01095589      -0.06291728 </v>
   <v>      -0.00000000      -0.08428017      -0.06242383 </v>
   <v>      -0.00000000       0.02129535      -1.29919134 </v>
   <v>      -0.00000000      -0.00973244      -1.32357552 </v>
   <v>      -0.00000000       0.15826009      -0.16960786 </v>
   <v>      -0.00000000       0.01849840      -0.14232239 </v>
   <v>      -0.00000000       0.12008441       0.13750521 </v>
   <v>      -0.00000000       0.19476258       0.19715461 </v>
   <v>       0.05366054       0.22787036      -0.28774524 </v>
   <v>      -0.05366054       0.22787036      -0.28774524 </v>
   <v>      -0.10456987       0.05900711       0.08503587 </v>
   <v>       0.10456987       0.05900711       0.08503587 </v>
   <v>       0.02592491       1.37659184       0.10278117 </v>
   <v>      -0.02592491       1.37659184       0.10278117 </v>
   <v>      -0.11468987      -0.21101701      -0.03730105 </v>
   <v>       0.11468987      -0.21101701      -0.03730105 </v>
   <v>       0.02208087      -0.06276112       0.25211618 </v>
   <v>      -0.02208087      -0.06276112       0.25211618 </v>
   <v>       0.00336715      -1.36159469       0.04608785 </v>
   <v>      -0.00336715      -1.36159469       0.04608785 </v>
   <v>       0.26123295      -0.10952387      -0.23251904 </v>
   <v>      -0.26123295      -0.10952387      -0.23251904 </v>
   <v>      -0.12414204      -0.01322058       0.13116648 </v>
   <v>       0.12414204      -0.01322058       0.13116648 </v>
   <v>       0.00672005      -0.00205916       1.41878675 </v>
   <v>      -0.00672005      -0.00205916       1.41878675 </v>
   <v>      -0.00000000       0.14173901       0.66488234 </v>
   <v>      -0.00000000       0.11630362       0.77926654 </v>
   <v>      -0.00000000      -0.00639280       0.20675872 </v>
   <v>      -0.00000000       0.00644604       0.15743678 </v>
   <v>      -0.00000000      -0.14767853       0.29108024 </v>
   <v>      -0.00000000      -0.01520275       0.32474897 </v>
   <v>      -0.00000000       0.01928755       0.30240885 </v>
   <v>      -0.00000000       0.00516006      -1.91537189 </v>
   <v>      -0.00000000       0.01179543      -1.94452199 </v>
   <v>      -0.00000000       0.00274808      -0.73267579 </v>
   <v>      -0.00000000      -0.00851096      -0.75129745 </v>
   <v>      -0.00000000       0.06828293       0.01567702 </v>
   <v>      -0.00000000      -0.14107307       0.05065448 </v>
   <v>      -0.00000000      -0.09229803      -0.19319384 </v>
   <v>      -0.00000000       0.15397213      -0.29585485 </v>
   <v>      -0.13113050       0.09193010      -0.49624431 </v>
   <v>       0.13113050       0.09193010      -0.49624431 </v>
   <v>      -0.11326179      -0.08377118      -0.50049993 </v>
   <v>       0.11326179      -0.08377118      -0.50049993 </v>
   <v>       0.18108169      -0.01465187      -0.22122611 </v>
   <v>      -0.18108169      -0.01465187      -0.22122611 </v>
   <v>       0.34055028      -0.05969033       0.51241096 </v>
   <v>      -0.34055028      -0.05969033       0.51241096 </v>
   <v>      -0.15053443       0.05340530       0.79460356 </v>
   <v>       0.15053443       0.05340530       0.79460356 </v>
   <v>      -0.00080640       1.18251003       0.59984565 </v>
   <v>       0.00080640       1.18251003       0.59984565 </v>
   <v>       0.39300404      -0.02822620       0.87432757 </v>
   <v>      -0.39300404      -0.02822620       0.87432757 </v>
   <v>      -0.00793502      -1.19871983       0.55588606 </v>
   <v>       0.00793502      -1.19871983       0.55588606 </v>
   <v>      -0.00000000       0.19869145      -0.89268970 </v>
  </varray>
  <varray name="stress" >
   <v>      -7.91817967       0.00000000       0.00000000 </v>
   <v>       0.00000000       3.71146260      -1.67382333 </v>
   <v>       0.00000000      -1.67382328      42.57235382 </v>
  </varray>
  <energy>
   <i name="e_fr_energy">   -499.35533366 </i>
   <i name="e_wo_entrp">   -499.35426726 </i>
   <i name="e_0_energy">     -0.00319920 </i>
  </energy>
  <time name="totalsc">  124.89  125.38</time>
 </calculation>
 <calculation>
  <scstep>
   <time name="dav">    4.28    4.28</time>
   <time name="total">    4.56    4.63</time>
   <energy>
    <i name="alphaZ">   1373.97392322 </i>
    <i name="ewald">  -8209.97970906 </i>
    <i name="hartreedc">   -607.29332480 </i>
    <i name="XCdc">  -2386.47088610 </i>
    <i name="pawpsdc">  19940.76095316 </i>
    <i name="pawaedc"> -17303.90377512 </i>
    <i name="eentropy">     -0.00438786 </i>
    <i name="bandstr">    383.63366943 </i>
    <i name="atom">   6309.81913796 </i>
    <i name="e_fr_energy">   -499.46439918 </i>
    <i name="e_wo_entrp">   -499.46001132 </i>
    <i name="e_0_energy">   -499.46293656 </i>
   </energy>
  </scstep>
  <scstep>
   <time name="dav">    6.33    6.34</time>
   <time name="total">    6.62    6.63</time>
   <energy>
    <i name="e_fr_energy">   -500.38424027 </i>
    <i name="e_wo_entrp">   -500.38691059 </i>
    <i name="e_0_energy">   -500.38513037 </i>
   </energy>
  </scstep>
  <scstep>
   <time name="dav">    7.16    7.18</time>
   <time name="total">    7.45    7.47</time>
   <energy>
    <i name="e_fr_energy">   -499.60259158 </i>
    <i name="e_wo_entrp">   -499.59831776 </i>
    <i name="e_0_energy">   -499.60116698 </i>
   </energy>
  </scstep>
  <scstep>
   <time name="dav">    6.29    6.30</time>
   <time name="total">    6.57    6.59</time>
   <energy>
    <i name="e_fr_energy">   -499.45068290 </i>
    <i name="e_wo_entrp">   -499.44681942 </i>
    <i name="e_0_energy">   -499.44939507 </i>
   </energy>
  </scstep>
  <scstep>
   <time name="dav">    6.04    6.05</time>
   <time name="total">    6.34    6.35</time>
   <energy>
    <i name="e_fr_energy">   -499.45317250 </i>
    <i name="e_wo_entrp">   -499.44962630 </i>
    <i name="e_0_energy">   -499.45199043 </i>
   </energy>
  </scstep>
  <scstep>
   <time name="dav">    7.06    7.07</time>
   <time name="total">    7.34    7.35</time>
   <energy>
    <i name="e_fr_energy">   -499.46637415 </i>
    <i name="e_wo_entrp">   -499.46134649 </i>
    <i name="e_0_energy">   -499.46469826 </i>
   </energy>
  </scstep>
  <scstep>
   <time name="dav">    6.99    7.02</time>
   <time name="total">    7.28    7.30</time>
   <energy>
    <i name="e_fr_energy">   -499.45034840 </i>
    <i name="e_wo_entrp">   -499.44635634 </i>
    <i name="e_0_energy">   -499.44901771 </i>
   </energy>
  </scstep>
  <scstep>
   <time name="dav">    6.21    6.23</time>
   <time name="total">    6.50    6.51</time>
   <energy>
    <i name="e_fr_energy">   -499.45050601 </i>
    <i name="e_wo_entrp">   -499.44661858 </i>
    <i name="e_0_energy">   -499.44921020 </i>
   </energy>
  </scstep>
  <scstep>
   <time name="dav">    6.06    6.07</time>
   <time name="total">    6.34    6.35</time>
   <energy>
    <i name="e_fr_energy">   -499.44759671 </i>
    <i name="e_wo_entrp">   -499.44361730 </i>
    <i name="e_0_energy">   -499.44627024 </i>
   </energy>
  </scstep>
  <scstep>
   <time name="dav">    5.96    5.97</time>
   <time name="total">    6.25    6.26</time>
   <energy>
    <i name="e_fr_energy">   -499.44689935 </i>
    <i name="e_wo_entrp">   -499.44308876 </i>
    <i name="e_0_energy">   -499.44562915 </i>
   </energy>
  </scstep>
  <scstep>
   <time name="dav">    5.94    5.95</time>
   <time name="total">    6.24    6.25</time>
   <energy>
    <i name="e_fr_energy">   -499.44678446 </i>
    <i name="e_wo_entrp">   -499.44280119 </i>
    <i name="e_0_energy">   -499.44545671 </i>
   </energy>
  </scstep>
  <scstep>
   <time name="dav">    5.92    5.93</time>
   <time name="total">    6.20    6.21</time>
   <energy>
    <i name="e_fr_energy">   -499.44668532 </i>
    <i name="e_wo_entrp">   -499.44276890 </i>
    <i name="e_0_energy">   -499.44537985 </i>
   </energy>
  </scstep>
  <scstep>
   <time name="dav">    5.92    5.94</time>
   <time name="total">    6.21    6.23</time>
   <energy>
    <i name="e_fr_energy">   -499.44668560 </i>
    <i name="e_wo_entrp">   -499.44271694 </i>
    <i name="e_0_energy">   -499.44536271 </i>
   </energy>
  </scstep>
  <scstep>
   <time name="dav">    6.00    6.01</time>
   <time name="total">    6.28    6.29</time>
   <energy>
    <i name="e_fr_energy">   -499.44668399 </i>
    <i name="e_wo_entrp">   -499.44272621 </i>
    <i name="e_0_energy">   -499.44536473 </i>
   </energy>
  </scstep>
  <scstep>
   <time name="dav">    5.92    5.93</time>
   <time name="total">    6.21    6.21</time>
   <energy>
    <i name="e_fr_energy">   -499.44666239 </i>
    <i name="e_wo_entrp">   -499.44271872 </i>
    <i name="e_0_energy">   -499.44534783 </i>
   </energy>
  </scstep>
  <scstep>
   <time name="dav">    5.89    5.92</time>
   <time name="total">    6.18    6.21</time>
   <energy>
    <i name="e_fr_energy">   -499.44665944 </i>
    <i name="e_wo_entrp">   -499.44269784 </i>
    <i name="e_0_energy">   -499.44533891 </i>
   </energy>
  </scstep>
  <scstep>
   <time name="dav">    5.92    5.93</time>
   <time name="total">    6.20    6.21</time>
   <energy>
    <i name="e_fr_energy">   -499.44665875 </i>
    <i name="e_wo_entrp">   -499.44270591 </i>
    <i name="e_0_energy">   -499.44534114 </i>
   </energy>
  </scstep>
  <scstep>
   <time name="dav">    5.94    5.95</time>
   <time name="total">    6.23    6.23</time>
   <energy>
    <i name="e_fr_energy">   -499.44665818 </i>
    <i name="e_wo_entrp">   -499.44270117 </i>
    <i name="e_0_energy">   -499.44533918 </i>
   </energy>
  </scstep>
  <scstep>
   <time name="dav">    6.05    6.06</time>
   <time name="total">    6.34    6.34</time>
   <energy>
    <i name="e_fr_energy">   -499.44665837 </i>
    <i name="e_wo_entrp">   -499.44270299 </i>
    <i name="e_0_energy">   -499.44533991 </i>
   </energy>
  </scstep>
  <scstep>
   <time name="dav">    5.91    5.91</time>
   <time name="total">    6.19    6.20</time>
   <energy>
    <i name="e_fr_energy">   -499.44665825 </i>
    <i name="e_wo_entrp">   -499.44270229 </i>
    <i name="e_0_energy">   -499.44533959 </i>
   </energy>
  </scstep>
  <scstep>
   <time name="dav">    5.45    5.45</time>
   <time name="total">    5.73    5.74</time>
   <energy>
    <i name="e_fr_energy">   -499.44665825 </i>
    <i name="e_wo_entrp">   -499.44270295 </i>
    <i name="e_0_energy">   -499.44533982 </i>
   </energy>
  </scstep>
  <scstep>
   <time name="dav">    3.93    3.93</time>
   <time name="total">    3.99    3.99</time>
   <energy>
    <i name="alphaZ">   1373.97392322 </i>
    <i name="ewald">  -8209.97970906 </i>
    <i name="hartreedc">   -607.00173108 </i>
    <i name="XCdc">  -2386.49212645 </i>
    <i name="pawpsdc">  19910.21241991 </i>
    <i name="pawaedc"> -17273.29293579 </i>
    <i name="eentropy">     -0.00395582 </i>
    <i name="bandstr">    383.31831888 </i>
    <i name="atom">   6309.81913796 </i>
    <i name="e_fr_energy">   -499.44665824 </i>
    <i name="e_wo_entrp">   -499.44270242 </i>
    <i name="e_0_energy">   -499.44533963 </i>
   </energy>
  </scstep>
  <structure>
   <crystal>
    <varray name="basis" >
     <v>       6.30976000       0.00000000       0.00000000 </v>
     <v>       0.00000000       9.46464000       0.00000000 </v>
     <v>       0.00000000       0.00000000      18.91832600 </v>
    </varray>
    <i name="volume">   1129.79499167 </i>
    <varray name="rec_basis" >
     <v>       0.15848463       0.00000000       0.00000000 </v>
     <v>       0.00000000       0.10565642       0.00000000 </v>
     <v>       0.00000000       0.00000000       0.05285880 </v>
    </varray>
   </crystal>
   <varray name="positions" >
    <v>       0.62500000       0.04166700       0.50000000 </v>
    <v>       0.12500000       0.04166700       0.65857600 </v>
    <v>       0.62500000       0.04166700       0.65857600 </v>
    <v>       0.12500000       0.04166700       0.81715300 </v>
    <v>       0.62500000       0.04166700       0.81715300 </v>
    <v>       0.12500000       0.37500000       0.50000000 </v>
[...]
       <r>    -2.4899     2.2849     2.7473 </r>
       <r>    -2.4632     2.9670     2.8268 </r>
       <r>    -2.4364     4.5941     2.9498 </r>
       <r>    -2.4096     6.7276     3.1300 </r>
       <r>    -2.3828     9.3463     3.3803 </r>
       <r>    -2.3561     8.1589     3.5987 </r>
       <r>    -2.3293     3.8580     3.7021 </r>
       <r>    -2.3025     0.8713     3.7254 </r>
       <r>    -2.2757    -0.3690     3.7155 </r>
       <r>    -2.2489     0.7699     3.7361 </r>
       <r>    -2.2222     6.2876     3.9045 </r>
       <r>    -2.1954    11.8328     4.2214 </r>
       <r>    -2.1686    10.6158     4.5056 </r>
       <r>    -2.1418     5.6164     4.6560 </r>
       <r>    -2.1150     2.7575     4.7299 </r>
       <r>    -2.0883     1.6002     4.7727 </r>
       <r>    -2.0615     0.7470     4.7927 </r>
       <r>    -2.0347     2.2635     4.8533 </r>
       <r>    -2.0079     5.8616     5.0103 </r>
       <r>    -1.9812     8.5429     5.2391 </r>
       <r>    -1.9544    10.2891     5.5146 </r>
       <r>    -1.9276    10.4531     5.7945 </r>
       <r>    -1.9008     7.9357     6.0070 </r>
       <r>    -1.8740     5.1899     6.1460 </r>
       <r>    -1.8473     6.4140     6.3178 </r>
       <r>    -1.8205     9.2209     6.5647 </r>
       <r>    -1.7937     8.0231     6.7795 </r>
       <r>    -1.7669     6.7647     6.9607 </r>
       <r>    -1.7401     9.5601     7.2167 </r>
       <r>    -1.7134    10.5415     7.4990 </r>
       <r>    -1.6866     7.8144     7.7082 </r>
       <r>    -1.6598     7.7364     7.9154 </r>
       <r>    -1.6330     9.2840     8.1640 </r>
       <r>    -1.6063     7.5872     8.3672 </r>
       <r>    -1.5795     6.0174     8.5283 </r>
       <r>    -1.5527     6.7469     8.7090 </r>
       <r>    -1.5259     6.9989     8.8964 </r>
       <r>    -1.4991     6.3074     9.0653 </r>
       <r>    -1.4724     4.8853     9.1961 </r>
       <r>    -1.4456     5.1066     9.3329 </r>
       <r>    -1.4188     9.6216     9.5905 </r>
       <r>    -1.3920    13.2993     9.9467 </r>
       <r>    -1.3653    12.9476    10.2934 </r>
       <r>    -1.3385     8.9766    10.5338 </r>
       <r>    -1.3117     3.7392    10.6339 </r>
       <r>    -1.2849     2.4661    10.6999 </r>
       <r>    -1.2581     5.6944    10.8524 </r>
       <r>    -1.2314    11.2114    11.1526 </r>
       <r>    -1.2046    16.4754    11.5938 </r>
       <r>    -1.1778    18.5278    12.0900 </r>
       <r>    -1.1510    15.3188    12.5002 </r>
       <r>    -1.1242    10.3655    12.7777 </r>
       <r>    -1.0975     9.0708    13.0206 </r>
       <r>    -1.0707    11.4859    13.3282 </r>
       <r>    -1.0439    14.6334    13.7201 </r>
       <r>    -1.0171    15.0740    14.1237 </r>
       <r>    -0.9904    12.6595    14.4627 </r>
       <r>    -0.9636    13.3998    14.8216 </r>
       <r>    -0.9368    16.8442    15.2726 </r>
       <r>    -0.9100    16.2062    15.7066 </r>
       <r>    -0.8832    12.3280    16.0367 </r>
       <r>    -0.8565     8.6884    16.2694 </r>
       <r>    -0.8297     6.7474    16.4501 </r>
       <r>    -0.8029     5.4542    16.5961 </r>
       <r>    -0.7761     4.7953    16.7245 </r>
       <r>    -0.7493     8.0098    16.9390 </r>
       <r>    -0.7226    15.4795    17.3535 </r>
       <r>    -0.6958    20.5062    17.9027 </r>
       <r>    -0.6690    18.6968    18.4033 </r>
       <r>    -0.6422    15.1006    18.8077 </r>
       <r>    -0.6155    14.3830    19.1929 </r>
       <r>    -0.5887    16.1054    19.6241 </r>
       <r>    -0.5619    19.2791    20.1404 </r>
       <r>    -0.5351    20.1269    20.6794 </r>
       <r>    -0.5083    14.8655    21.0774 </r>
       <r>    -0.4816     8.9980    21.3184 </r>
       <r>    -0.4548    10.0984    21.5888 </r>
       <r>    -0.4280    18.7340    22.0905 </r>
       <r>    -0.4012    23.8974    22.7304 </r>
       <r>    -0.3744    16.9196    23.1835 </r>
       <r>    -0.3477     8.3212    23.4063 </r>
       <r>    -0.3209     9.7013    23.6661 </r>
       <r>    -0.2941    16.7715    24.1152 </r>
       <r>    -0.2673    21.2156    24.6833 </r>
       <r>    -0.2406    18.8331    25.1877 </r>
       <r>    -0.2138    13.4586    25.5481 </r>
       <r>    -0.1870    15.1191    25.9529 </r>
       <r>    -0.1602    20.9737    26.5146 </r>
       <r>    -0.1334    21.5654    27.0921 </r>
       <r>    -0.1067    20.4373    27.6393 </r>
       <r>    -0.0799    22.5197    28.2424 </r>
       <r>    -0.0531    25.9792    28.9381 </r>
       <r>    -0.0263    29.0516    29.7160 </r>
       <r>     0.0004    29.4357    30.5043 </r>
       <r>     0.0272    27.6850    31.2456 </r>
       <r>     0.0540    26.3749    31.9519 </r>
       <r>     0.0808    25.5874    32.6371 </r>
       <r>     0.1076    25.1489    33.3105 </r>
       <r>     0.1343    28.4908    34.0735 </r>
       <r>     0.1611    34.8377    35.0064 </r>
       <r>     0.1879    34.2222    35.9228 </r>
       <r>     0.2147    26.0901    36.6214 </r>
       <r>     0.2415    22.9091    37.2349 </r>
       <r>     0.2682    27.3616    37.9676 </r>
       <r>     0.2950    28.4768    38.7302 </r>
       <r>     0.3218    25.3328    39.4085 </r>
       <r>     0.3486    27.6146    40.1480 </r>
       <r>     0.3753    37.6588    41.1565 </r>
       <r>     0.4021    48.8423    42.4644 </r>
       <r>     0.4289    58.8632    44.0406 </r>
       <r>     0.4557    69.3662    45.8982 </r>
       <r>     0.4825    73.3038    47.8611 </r>
       <r>     0.5092    66.3653    49.6383 </r>
       <r>     0.5360    58.1988    51.1968 </r>
       <r>     0.5628    53.9656    52.6419 </r>
       <r>     0.5896    52.0336    54.0352 </r>
       <r>     0.6164    51.1342    55.4045 </r>
       <r>     0.6431    51.6180    56.7868 </r>
       <r>     0.6699    56.8803    58.3100 </r>
       <r>     0.6967    63.7467    60.0170 </r>
       <r>     0.7235    67.3019    61.8192 </r>
       <r>     0.7502    69.6894    63.6854 </r>
       <r>     0.7770    70.2410    65.5663 </r>
       <r>     0.8038    67.6515    67.3779 </r>
       <r>     0.8306    69.6930    69.2442 </r>
       <r>     0.8574    76.5040    71.2929 </r>
       <r>     0.8841    75.7619    73.3217 </r>
       <r>     0.9109    68.8341    75.1649 </r>
       <r>     0.9377    68.0974    76.9885 </r>
       <r>     0.9645    78.6267    79.0940 </r>
       <r>     0.9913    92.5475    81.5722 </r>
       <r>     1.0180    95.2929    84.1240 </r>
       <r>     1.0448    91.0679    86.5627 </r>
       <r>     1.0716    91.4663    89.0120 </r>
       <r>     1.0984    91.1544    91.4530 </r>
       <r>     1.1251    88.1854    93.8144 </r>
       <r>     1.1519    83.8580    96.0600 </r>
       <r>     1.1787    73.6014    98.0310 </r>
       <r>     1.2055    64.9958    99.7714 </r>
       <r>     1.2323    66.9074   101.5631 </r>
       <r>     1.2590    77.6430   103.6423 </r>
       <r>     1.2858    90.6131   106.0688 </r>
       <r>     1.3126    96.7781   108.6603 </r>
       <r>     1.3394    95.7950   111.2256 </r>
       <r>     1.3661    90.5698   113.6509 </r>
       <r>     1.3929    84.0278   115.9010 </r>
       <r>     1.4197    82.2825   118.1044 </r>
       <r>     1.4465    79.3376   120.2289 </r>
       <r>     1.4733    72.5754   122.1724 </r>
       <r>     1.5000    72.1647   124.1049 </r>
       <r>     1.5268    76.5519   126.1548 </r>
       <r>     1.5536    77.9144   128.2412 </r>
       <r>     1.5804    72.6360   130.1863 </r>
       <r>     1.6072    65.7806   131.9478 </r>
       <r>     1.6339    67.8858   133.7657 </r>
       <r>     1.6607    72.8562   135.7166 </r>
       <r>     1.6875    73.0996   137.6741 </r>
       <r>     1.7143    68.2885   139.5028 </r>
       <r>     1.7410    60.6879   141.1279 </r>
       <r>     1.7678    60.1464   142.7385 </r>
       <r>     1.7946    66.6689   144.5238 </r>
       <r>     1.8214    70.7169   146.4175 </r>
       <r>     1.8482    70.8846   148.3157 </r>
       <r>     1.8749    69.4146   150.1745 </r>
       <r>     1.9017    67.6306   151.9856 </r>
       <r>     1.9285    66.5604   153.7679 </r>
       <r>     1.9553    65.7688   155.5291 </r>
       <r>     1.9821    67.1740   157.3279 </r>
       <r>     2.0088    70.2595   159.2094 </r>
       <r>     2.0356    75.4618   161.2301 </r>
       <r>     2.0624    81.3130   163.4076 </r>
       <r>     2.0892    83.2447   165.6367 </r>
       <r>     2.1159    84.2399   167.8925 </r>
       <r>     2.1427    85.3063   170.1769 </r>
       <r>     2.1695    84.3009   172.4343 </r>
       <r>     2.1963    83.7768   174.6778 </r>
       <r>     2.2231    85.6827   176.9722 </r>
       <r>     2.2498    90.4582   179.3945 </r>
       <r>     2.2766    98.4868   182.0319 </r>
       <r>     2.3034   106.2207   184.8763 </r>
       <r>     2.3302   112.5126   187.8892 </r>
       <r>     2.3569   116.9218   191.0202 </r>
       <r>     2.3837   119.2868   194.2145 </r>
       <r>     2.4105   124.9040   197.5592 </r>
       <r>     2.4373   132.1757   201.0987 </r>
       <r>     2.4641   136.4464   204.7525 </r>
       <r>     2.4908   133.1708   208.3186 </r>
       <r>     2.5176   120.5051   211.5455 </r>
       <r>     2.5444   108.6424   214.4548 </r>
       <r>     2.5712   103.5264   217.2271 </r>
       <r>     2.5980   102.8627   219.9816 </r>
       <r>     2.6247   108.9223   222.8983 </r>
       <r>     2.6515   117.9333   226.0564 </r>
       <r>     2.6783   121.2767   229.3040 </r>
       <r>     2.7051   121.8912   232.5681 </r>
       <r>     2.7318   122.0726   235.8370 </r>
       <r>     2.7586   118.9891   239.0233 </r>
       <r>     2.7854   117.6674   242.1743 </r>
       <r>     2.8122   121.4400   245.4262 </r>
       <r>     2.8390   124.5348   248.7611 </r>
       <r>     2.8657   124.3113   252.0899 </r>
       <r>     2.8925   123.8271   255.4058 </r>
       <r>     2.9193   123.7045   258.7185 </r>
       <r>     2.9461   121.5919   261.9745 </r>
       <r>     2.9729   122.3719   265.2514 </r>
       <r>     2.9996   124.7318   268.5915 </r>
       <r>     3.0264   118.4202   271.7626 </r>
       <r>     3.0532   108.7130   274.6738 </r>
       <r>     3.0800   104.1731   277.4634 </r>
       <r>     3.1067   104.8559   280.2713 </r>
       <r>     3.1335   109.0416   283.1912 </r>
       <r>     3.1603   113.2170   286.2230 </r>
       <r>     3.1871   116.5654   289.3444 </r>
       <r>     3.2139   120.3121   292.5662 </r>
       <r>     3.2406   123.5218   295.8739 </r>
       <r>     3.2674   125.4494   299.2333 </r>
       <r>     3.2942   124.4527   302.5659 </r>
       <r>     3.3210   122.9380   305.8580 </r>
       <r>     3.3478   121.4354   309.1099 </r>
       <r>     3.3745   116.2064   312.2217 </r>
       <r>     3.4013   111.2993   315.2021 </r>
       <r>     3.4281   107.2938   318.0753 </r>
       <r>     3.4549    93.0167   320.5661 </r>
       <r>     3.4816    72.2724   322.5014 </r>
       <r>     3.5084    61.7937   324.1562 </r>
       <r>     3.5352    62.2041   325.8219 </r>
       <r>     3.5620    66.2582   327.5962 </r>
       <r>     3.5888    68.6085   329.4334 </r>
       <r>     3.6155    61.5304   331.0811 </r>
       <r>     3.6423    43.4919   332.2458 </r>
       <r>     3.6691    26.0397   332.9431 </r>
       <r>     3.6959    17.1725   333.4029 </r>
       <r>     3.7226    12.5315   333.7385 </r>
       <r>     3.7494     7.2763   333.9333 </r>
       <r>     3.7762     2.6254   334.0036 </r>
       <r>     3.8030     0.2889   334.0114 </r>
       <r>     3.8298    -0.2487   334.0047 </r>
       <r>     3.8565    -0.1402   334.0010 </r>
       <r>     3.8833    -0.0318   334.0001 </r>
       <r>     3.9101    -0.0037   334.0000 </r>
       <r>     3.9369    -0.0002   334.0000 </r>
       <r>     3.9637    -0.0000   334.0000 </r>
       <r>     3.9904    -0.0000   334.0000 </r>
       <r>     4.0172    -0.0000   334.0000 </r>
       <r>     4.0440    -0.0000   334.0000 </r>
       <r>     4.0708    -0.0000   334.0000 </r>
       <r>     4.0975     0.0000   334.0000 </r>
       <r>     4.1243     0.0000   334.0000 </r>
       <r>     4.1511     0.0000   334.0000 </r>
       <r>     4.1779     0.0000   334.0000 </r>
       <r>     4.2047     0.0000   334.0000 </r>
       <r>     4.2314     0.0000   334.0000 </r>
       <r>     4.2582     0.0000   334.0000 </r>
      </set>
     </set>
    </array>
   </total>
  </dos>
 </calculation>
 <structure name="finalpos" >
  <crystal>
   <varray name="basis" >
    <v>       6.30976000       0.00000000       0.00000000 </v>
    <v>       0.00000000       9.46464000       0.00000000 </v>
    <v>       0.00000000       0.00000000      18.91832600 </v>
   </varray>
   <i name="volume">   1129.79499167 </i>
   <varray name="rec_basis" >
    <v>       0.15848463       0.00000000       0.00000000 </v>
    <v>       0.00000000       0.10565642       0.00000000 </v>
    <v>       0.00000000       0.00000000       0.05285880 </v>
   </varray>
  </crystal>
  <varray name="positions" >
   <v>       0.62500000       0.04166700       0.50000000 </v>
   <v>       0.12500000       0.04166700       0.65857600 </v>
   <v>       0.62500000       0.04166700       0.65857600 </v>
   <v>       0.12500000       0.04166700       0.81715300 </v>
   <v>       0.62500000       0.04166700       0.81715300 </v>
   <v>       0.12500000       0.37500000       0.50000000 </v>
   <v>       0.62500000       0.37500000       0.50000000 </v>
   <v>       0.12500000       0.37500000       0.65857600 </v>
   <v>       0.62500000       0.37500000       0.65857600 </v>
   <v>       0.12500000       0.37500000       0.81715300 </v>
   <v>       0.62500000       0.37500000       0.81715300 </v>
   <v>       0.12500000       0.70833300       0.50000000 </v>
   <v>       0.62500000       0.70833300       0.50000000 </v>
   <v>       0.12500000       0.70833300       0.65857600 </v>
   <v>       0.62500000       0.70833300       0.65857600 </v>
   <v>       0.12500000       0.70833300       0.81715300 </v>
   <v>       0.62500000       0.70833300       0.81715300 </v>
   <v>       0.37500000       0.20833300       0.57928800 </v>
   <v>       0.87500000       0.20833300       0.57928800 </v>
   <v>       0.37500000       0.20833300       0.73786500 </v>
   <v>       0.87500000       0.20833300       0.73786500 </v>
   <v>       0.37500000       0.20833300       0.89644100 </v>
   <v>       0.87500000       0.20833300       0.89644100 </v>
   <v>       0.37500000       0.54166700       0.57928800 </v>
   <v>       0.87500000       0.54166700       0.57928800 </v>
   <v>       0.37500000       0.54166700       0.73786500 </v>
   <v>       0.87500000       0.54166700       0.73786500 </v>
   <v>       0.37500000       0.54166700       0.89644100 </v>
   <v>       0.87500000       0.54166700       0.89644100 </v>
   <v>       0.37500000       0.87500000       0.57928800 </v>
   <v>       0.87500000       0.87500000       0.57928800 </v>
   <v>       0.37500000       0.87500000       0.73786500 </v>
   <v>       0.87500000       0.87500000       0.73786500 </v>
   <v>       0.37500000       0.87500000       0.89644100 </v>
   <v>       0.87500000       0.87500000       0.89644100 </v>
   <v>       0.12500000       0.62500000       0.35679700 </v>
   <v>       0.62500000       0.62500000       0.35679700 </v>
   <v>       0.12500000       0.62500000       0.11893200 </v>
   <v>       0.62500000       0.62500000       0.11893200 </v>
   <v>       0.62500000       0.12500000       0.35679700 </v>
   <v>       0.12500000       0.12500000       0.11893200 </v>
   <v>       0.62500000       0.12500000       0.11893200 </v>
   <v>       0.12500000       0.37500000       0.03964400 </v>
   <v>       0.62500000       0.37500000       0.03964400 </v>
   <v>       0.12500000       0.87500000       0.03964400 </v>
   <v>       0.62500000       0.87500000       0.03964400 </v>
   <v>       0.12500000       0.37500000       0.27750900 </v>
   <v>       0.62500000       0.37500000       0.27750900 </v>
   <v>       0.12500000       0.87500000       0.27750900 </v>
   <v>       0.62500000       0.87500000       0.27750900 </v>
   <v>       0.37500000       0.87500000       0.15857600 </v>
   <v>       0.87500000       0.87500000       0.15857600 </v>
   <v>       0.37499900       0.37500000       0.15857600 </v>
   <v>       0.87499900       0.37500000       0.15857600 </v>
   <v>       0.37500000       0.37500000       0.39644100 </v>
   <v>       0.87500000       0.37500000       0.39644100 </v>
   <v>       0.37500000       0.87500000       0.39644100 </v>
   <v>       0.87500000       0.87500000       0.39644100 </v>
   <v>       0.37500000       0.62500000       0.23786400 </v>
   <v>       0.87500000       0.62500000       0.23786400 </v>
   <v>       0.37500000       0.62500000       0.00000000 </v>
   <v>       0.87500000       0.62500000       0.00000000 </v>
   <v>       0.37500000       0.12500000       0.23786500 </v>
   <v>       0.87500000       0.12500000       0.23786500 </v>
   <v>       0.37500000       0.12500000       0.00000000 </v>
   <v>       0.87500000       0.12500000       0.00000000 </v>
   <v>       0.12500000       0.05981080       0.48219988 </v>
  </varray>
  <varray name="selective"  type="logical" >
   <v type="logical" >  F  F  F </v>
   <v type="logical" >  F  F  F </v>
   <v type="logical" >  F  F  F </v>
   <v type="logical" >  F  F  F </v>
   <v type="logical" >  F  F  F </v>
   <v type="logical" >  F  F  F </v>
   <v type="logical" >  F  F  F </v>
   <v type="logical" >  F  F  F </v>
   <v type="logical" >  F  F  F </v>
   <v type="logical" >  F  F  F </v>
   <v type="logical" >  F  F  F </v>
   <v type="logical" >  F  F  F </v>
   <v type="logical" >  F  F  F </v>
   <v type="logical" >  F  F  F </v>
   <v type="logical" >  F  F  F </v>
   <v type="logical" >  F  F  F </v>
   <v type="logical" >  F  F  F </v>
   <v type="logical" >  F  F  F </v>
   <v type="logical" >  F  F  F </v>
   <v type="logical" >  F  F  F </v>
   <v type="logical" >  F  F  F </v>
   <v type="logical" >  F  F  F </v>
   <v type="logical" >  F  F  F </v>
   <v type="logical" >  F  F  F </v>
   <v type="logical" >  F  F  F </v>
   <v type="logical" >  F  F  F </v>
   <v type="logical" >  F  F  F </v>
   <v type="logical" >  F  F  F </v>
   <v type="logical" >  F  F  F </v>
   <v type="logical" >  F  F  F </v>
   <v type="logical" >  F  F  F </v>
   <v type="logical" >  F  F  F </v>
   <v type="logical" >  F  F  F </v>
   <v type="logical" >  F  F  F </v>
   <v type="logical" >  F  F  F </v>
   <v type="logical" >  F  F  F </v>
   <v type="logical" >  F  F  F </v>
   <v type="logical" >  F  F  F </v>
   <v type="logical" >  F  F  F </v>
   <v type="logical" >  F  F  F </v>
   <v type="logical" >  F  F  F </v>
   <v type="logical" >  F  F  F </v>
   <v type="logical" >  F  F  F </v>
   <v type="logical" >  F  F  F </v>
   <v type="logical" >  F  F  F </v>
   <v type="logical" >  F  F  F </v>
   <v type="logical" >  F  F  F </v>
   <v type="logical" >  F  F  F </v>
   <v type="logical" >  F  F  F </v>
   <v type="logical" >  F  F  F </v>
   <v type="logical" >  F  F  F </v>
   <v type="logical" >  F  F  F </v>
   <v type="logical" >  F  F  F </v>
   <v type="logical" >  F  F  F </v>
   <v type="logical" >  F  F  F </v>
   <v type="logical" >  F  F  F </v>
   <v type="logical" >  F  F  F </v>
   <v type="logical" >  F  F  F </v>
   <v type="logical" >  F  F  F </v>
   <v type="logical" >  F  F  F </v>
   <v type="logical" >  F  F  F </v>
   <v type="logical" >  F  F  F </v>
   <v type="logical" >  F  F  F </v>
   <v type="logical" >  F  F  F </v>
   <v type="logical" >  F  F  F </v>
   <v type="logical" >  F  F  F </v>
   <v type="logical" >  T  T  T </v>
  </varray>
  <nose>
   <v>      -3.00000000       0.00000000       0.00010000       0.00010000 </v>
  </nose>
 </structure>
</modeling>
