Distance=0.500
 running on   16 total cores
 distrk:  each k-point on    8 cores,    2 groups
 distr:  one band on    4 cores,    2 groups
 using from now: INCAR     
 vasp.5.4.4.18Apr17-6-g9f103f2a35 (build Nov 27 2019 20:08:17) complex          
  
 POSCAR found type information on POSCAR  Ti
 POSCAR found :  1 types and      32 ions
 scaLAPACK will be used

 ----------------------------------------------------------------------------- 
|                                                                             |
|           W    W    AA    RRRRR   N    N  II  N    N   GGGG   !!!           |
|           W    W   A  A   R    R  NN   N  II  NN   N  G    G  !!!           |
|           W    W  A    A  R    R  N N  N  II  N N  N  G       !!!           |
|           W WW W  AAAAAA  RRRRR   N  N N  II  N  N N  G  GGG   !            |
|           WW  WW  A    A  R   R   N   NN  II  N   NN  G    G                |
|           W    W  A    A  R    R  N    N  II  N    N   GGGG   !!!           |
|                                                                             |
|      You have enabled k-point parallelism (KPAR>1).                         |
|      This developmental code was originally  written by Paul Kent at ORNL,  |
|      and carefully double checked in Vienna.                                |
|      GW as well as linear response parallelism added by Martijn Marsman     |
|      and Georg Kresse.                                                      |
|      Carefully verify results versus KPAR=1.                                |
|      Report problems to Paul Kent and Vienna.                               |
|                                                                             |
 ----------------------------------------------------------------------------- 

 LDA part: xc-table for Pade appr. of Perdew
 POSCAR found type information on POSCAR  Ti
 POSCAR found :  1 types and      32 ions
 POSCAR, INCAR and KPOINTS ok, starting setup
 FFT: planning ...
 WAVECAR not read
 WARNING: random wavefunctions but no delay for mixing, default for NELMDL
 entering main loop
       N       E                     dE             d eps       ncg     rms          rms(c)
DAV:   1     0.571888290475E+03    0.57189E+03   -0.36379E+04  1968   0.112E+03
DAV:   2    -0.167578927973E+03   -0.73947E+03   -0.71230E+03  1968   0.246E+02
DAV:   3    -0.277816401109E+03   -0.11024E+03   -0.10421E+03  3056   0.860E+01
DAV:   4    -0.286602496071E+03   -0.87861E+01   -0.81865E+01  3040   0.258E+01
DAV:   5    -0.287120682600E+03   -0.51819E+00   -0.49317E+00  3248   0.497E+00    0.670E+01
DAV:   6    -0.431253722778E+03   -0.14413E+03   -0.24095E+03  3672   0.975E+01    0.851E+01
DAV:   7    -0.244904095891E+03    0.18635E+03   -0.24329E+03  3432   0.152E+02    0.296E+01
DAV:   8    -0.256790706685E+03   -0.11887E+02   -0.55748E+02  3068   0.711E+01    0.324E+01
DAV:   9    -0.235684945754E+03    0.21106E+02   -0.11579E+02  3022   0.330E+01    0.193E+01
DAV:  10    -0.235204267433E+03    0.48068E+00   -0.12424E+01  3248   0.793E+00    0.171E+01
DAV:  11    -0.237070673182E+03   -0.18664E+01   -0.36720E+00  3264   0.475E+00    0.198E+01
DAV:  12    -0.231327631663E+03    0.57430E+01   -0.13662E+01  2474   0.149E+01    0.807E+00
DAV:  13    -0.230277517232E+03    0.10501E+01   -0.46597E+00  3240   0.657E+00    0.479E+00
DAV:  14    -0.230186340929E+03    0.91176E-01   -0.12378E+00  3144   0.317E+00    0.392E+00
DAV:  15    -0.230309572868E+03   -0.12323E+00   -0.97779E-01  3206   0.330E+00    0.464E+00
DAV:  16    -0.229995726722E+03    0.31385E+00   -0.17838E+00  3104   0.356E+00    0.125E+00
DAV:  17    -0.230002638220E+03   -0.69115E-02   -0.12224E-01  3016   0.113E+00    0.690E-01
DAV:  18    -0.230001312168E+03    0.13261E-02   -0.22941E-02  3128   0.444E-01    0.351E-01
DAV:  19    -0.230006488793E+03   -0.51766E-02   -0.12904E-02  2888   0.303E-01    0.981E-02
DAV:  20    -0.230011068875E+03   -0.45801E-02   -0.74858E-03  3112   0.234E-01    0.206E-01
DAV:  21    -0.230011949651E+03   -0.88078E-03   -0.87877E-03  3040   0.260E-01    0.121E-01
DAV:  22    -0.230012020642E+03   -0.70991E-04   -0.17926E-03  3016   0.115E-01    0.495E-02
DAV:  23    -0.230012081731E+03   -0.61089E-04   -0.18116E-04  2480   0.490E-02    0.300E-02
DAV:  24    -0.230012082112E+03   -0.38138E-06   -0.56917E-05  2904   0.214E-02    0.139E-02
DAV:  25    -0.230012083237E+03   -0.11247E-05   -0.10972E-05  1784   0.126E-02
   1 F= -.23001208E+03 E0= -.22995419E+03  d E =-.115794E+00
 running on   16 total cores
 distrk:  each k-point on    8 cores,    2 groups
 distr:  one band on    4 cores,    2 groups
 using from now: INCAR     
 vasp.5.4.4.18Apr17-6-g9f103f2a35 (build Nov 27 2019 20:08:17) complex          
  
 POSCAR found type information on POSCAR  Ti
 POSCAR found :  1 types and      36 ions
 scaLAPACK will be used

 ----------------------------------------------------------------------------- 
|                                                                             |
|           W    W    AA    RRRRR   N    N  II  N    N   GGGG   !!!           |
|           W    W   A  A   R    R  NN   N  II  NN   N  G    G  !!!           |
|           W    W  A    A  R    R  N N  N  II  N N  N  G       !!!           |
|           W WW W  AAAAAA  RRRRR   N  N N  II  N  N N  G  GGG   !            |
|           WW  WW  A    A  R   R   N   NN  II  N   NN  G    G                |
|           W    W  A    A  R    R  N    N  II  N    N   GGGG   !!!           |
|                                                                             |
|      You have enabled k-point parallelism (KPAR>1).                         |
|      This developmental code was originally  written by Paul Kent at ORNL,  |
|      and carefully double checked in Vienna.                                |
|      GW as well as linear response parallelism added by Martijn Marsman     |
|      and Georg Kresse.                                                      |
|      Carefully verify results versus KPAR=1.                                |
|      Report problems to Paul Kent and Vienna.                               |
|                                                                             |
 ----------------------------------------------------------------------------- 

 LDA part: xc-table for Pade appr. of Perdew
 POSCAR found type information on POSCAR  Ti
 POSCAR found :  1 types and      36 ions
 POSCAR, INCAR and KPOINTS ok, starting setup
 FFT: planning ...
 WAVECAR not read
 WARNING: random wavefunctions but no delay for mixing, default for NELMDL
 entering main loop
       N       E                     dE             d eps       ncg     rms          rms(c)
DAV:   1     0.707938140151E+03    0.70794E+03   -0.41982E+04  2208   0.115E+03
DAV:   2    -0.193063499599E+03   -0.90100E+03   -0.86610E+03  2208   0.256E+02
DAV:   3    -0.325427536886E+03   -0.13236E+03   -0.12151E+03  3184   0.939E+01
DAV:   4    -0.334298494975E+03   -0.88710E+01   -0.82108E+01  3152   0.285E+01
DAV:   5    -0.334740889099E+03   -0.44239E+00   -0.42087E+00  3520   0.503E+00    0.825E+01
DAV:   6    -0.544946389795E+03   -0.21021E+03   -0.30105E+03  4168   0.969E+01    0.111E+02
DAV:   7    -0.285080981138E+03    0.25987E+03   -0.42418E+03  4084   0.161E+02    0.353E+01
DAV:   8    -0.279534181707E+03    0.55468E+01   -0.46985E+02  3240   0.731E+01    0.361E+01
DAV:   9    -0.274263989387E+03    0.52702E+01   -0.34554E+01  3712   0.136E+01    0.286E+01
DAV:  10    -0.276651738060E+03   -0.23877E+01   -0.38553E+00  3544   0.453E+00    0.312E+01
DAV:  11    -0.264966197908E+03    0.11686E+02   -0.21550E+01  3052   0.164E+01    0.128E+01
DAV:  12    -0.263875521092E+03    0.10907E+01   -0.21670E+00  3584   0.398E+00    0.945E+00
DAV:  13    -0.262595285809E+03    0.12802E+01   -0.35157E+00  2752   0.704E+00    0.348E+00
DAV:  14    -0.262490998702E+03    0.10429E+00   -0.25743E+00  3448   0.472E+00    0.264E+00
DAV:  15    -0.262448048788E+03    0.42950E-01   -0.52275E-01  3156   0.229E+00    0.109E+00
DAV:  16    -0.262453208627E+03   -0.51598E-02   -0.27074E-01  3416   0.138E+00    0.101E+00
DAV:  17    -0.262452380174E+03    0.82845E-03   -0.47040E-02  3132   0.772E-01    0.438E-01
DAV:  18    -0.262462010287E+03   -0.96301E-02   -0.89905E-02  3380   0.831E-01    0.557E-01
DAV:  19    -0.262462302649E+03   -0.29236E-03   -0.12326E-02  2840   0.322E-01    0.220E-01
DAV:  20    -0.262462313432E+03   -0.10783E-04   -0.19855E-03  3464   0.114E-01    0.113E-01
DAV:  21    -0.262462155771E+03    0.15766E-03   -0.17914E-03  3476   0.132E-01    0.376E-02
DAV:  22    -0.262462206556E+03   -0.50785E-04   -0.15698E-04  2712   0.392E-02    0.134E-02
DAV:  23    -0.262462215203E+03   -0.86473E-05   -0.20910E-05  2416   0.159E-02    0.955E-03
DAV:  24    -0.262462216481E+03   -0.12783E-05   -0.35616E-06  1704   0.737E-03
   1 F= -.26246222E+03 E0= -.26240966E+03  d E =-.105116E+00
 running on   16 total cores
 distrk:  each k-point on    8 cores,    2 groups
 distr:  one band on    4 cores,    2 groups
 using from now: INCAR     
 vasp.5.4.4.18Apr17-6-g9f103f2a35 (build Nov 27 2019 20:08:17) complex          
  
 POSCAR found type information on POSCAR  Ti
 POSCAR found :  1 types and      68 ions
 scaLAPACK will be used

 ----------------------------------------------------------------------------- 
|                                                                             |
|           W    W    AA    RRRRR   N    N  II  N    N   GGGG   !!!           |
|           W    W   A  A   R    R  NN   N  II  NN   N  G    G  !!!           |
|           W    W  A    A  R    R  N N  N  II  N N  N  G       !!!           |
|           W WW W  AAAAAA  RRRRR   N  N N  II  N  N N  G  GGG   !            |
|           WW  WW  A    A  R   R   N   NN  II  N   NN  G    G                |
|           W    W  A    A  R    R  N    N  II  N    N   GGGG   !!!           |
|                                                                             |
|      You have enabled k-point parallelism (KPAR>1).                         |
|      This developmental code was originally  written by Paul Kent at ORNL,  |
|      and carefully double checked in Vienna.                                |
|      GW as well as linear response parallelism added by Martijn Marsman     |
|      and Georg Kresse.                                                      |
|      Carefully verify results versus KPAR=1.                                |
|      Report problems to Paul Kent and Vienna.                               |
|                                                                             |
 ----------------------------------------------------------------------------- 

 LDA part: xc-table for Pade appr. of Perdew
 POSCAR found type information on POSCAR  Ti
 POSCAR found :  1 types and      68 ions

 ----------------------------------------------------------------------------- 
|                                                                             |
|           W    W    AA    RRRRR   N    N  II  N    N   GGGG   !!!           |
|           W    W   A  A   R    R  NN   N  II  NN   N  G    G  !!!           |
|           W    W  A    A  R    R  N N  N  II  N N  N  G       !!!           |
|           W WW W  AAAAAA  RRRRR   N  N N  II  N  N N  G  GGG   !            |
|           WW  WW  A    A  R   R   N   NN  II  N   NN  G    G                |
|           W    W  A    A  R    R  N    N  II  N    N   GGGG   !!!           |
|                                                                             |
|      The distance between some ions is very small                           |
|      please check the nearest neigbor list in the OUTCAR file               |
|          I HOPE YOU KNOW, WHAT YOU ARE  DOING                               |
|                                                                             |
 ----------------------------------------------------------------------------- 

 POSCAR, INCAR and KPOINTS ok, starting setup
 FFT: planning ...
 WAVECAR not read
 WARNING: random wavefunctions but no delay for mixing, default for NELMDL
 entering main loop
       N       E                     dE             d eps       ncg     rms          rms(c)
DAV:   1     0.173258060653E+04    0.17326E+04   -0.81588E+04  4128   0.129E+03
DAV:   2    -0.564029766478E+02   -0.17890E+04   -0.17355E+04  4128   0.314E+02
DAV:   3    -0.295435438012E+03   -0.23903E+03   -0.22423E+03  5992   0.116E+02
DAV:   4    -0.313641093003E+03   -0.18206E+02   -0.17251E+02  5680   0.319E+01
DAV:   5    -0.314717509293E+03   -0.10764E+01   -0.10416E+01  6432   0.626E+00    0.164E+02
DAV:   6    -0.959613181127E+03   -0.64490E+03   -0.17267E+04  7368   0.406E+02    0.130E+02
DAV:   7    -0.346423041291E+03    0.61319E+03   -0.67422E+03  5952   0.259E+02    0.888E+01
DAV:   8    -0.170398328508E+03    0.17602E+03   -0.17903E+03  7420   0.124E+02    0.729E+01
DAV:   9    -0.103000315094E+03    0.67398E+02   -0.54786E+02  6912   0.635E+01    0.747E+01
DAV:  10    -0.149840648364E+03   -0.46840E+02   -0.14059E+02  6880   0.314E+01    0.951E+01
DAV:  11    -0.167934989887E+03   -0.18094E+02   -0.12480E+02  6776   0.304E+01    0.781E+01
DAV:  12    -0.121332025786E+03    0.46603E+02   -0.29727E+02  7128   0.583E+01    0.558E+01
DAV:  13    -0.758464816549E+02    0.45486E+02   -0.17144E+02  7344   0.435E+01    0.311E+01
DAV:  14    -0.694581388346E+02    0.63883E+01   -0.51952E+01  6816   0.215E+01    0.197E+01
DAV:  15    -0.691822487903E+02    0.27589E+00   -0.71977E+00  6168   0.765E+00    0.177E+01
DAV:  16    -0.696318160277E+02   -0.44957E+00   -0.26477E+00  6856   0.491E+00    0.173E+01
DAV:  17    -0.693296253375E+02    0.30219E+00   -0.16412E+00  6392   0.352E+00    0.153E+01
DAV:  18    -0.689775494366E+02    0.35208E+00   -0.60846E+00  6528   0.723E+00    0.112E+01
DAV:  19    -0.683923420867E+02    0.58521E+00   -0.60745E+00  6528   0.691E+00    0.702E+00
DAV:  20    -0.683444692339E+02    0.47873E-01   -0.36919E+00  6448   0.603E+00    0.560E+00
DAV:  21    -0.683464004357E+02   -0.19312E-02   -0.63829E-01  6752   0.224E+00    0.468E+00
DAV:  22    -0.682601757729E+02    0.86225E-01   -0.16050E-01  6672   0.130E+00    0.397E+00
DAV:  23    -0.681235009830E+02    0.13667E+00   -0.65899E-01  6720   0.233E+00    0.209E+00
DAV:  24    -0.680971478073E+02    0.26353E-01   -0.22235E-01  6880   0.137E+00    0.118E+00
DAV:  25    -0.680938231084E+02    0.33247E-02   -0.57174E-02  6224   0.685E-01    0.741E-01
DAV:  26    -0.680911884413E+02    0.26347E-02   -0.24928E-02  6320   0.456E-01    0.484E-01
DAV:  27    -0.680906689206E+02    0.51952E-03   -0.20817E-02  6616   0.452E-01    0.332E-01
DAV:  28    -0.680895755202E+02    0.10934E-02   -0.11116E-02  6664   0.349E-01    0.161E-01
DAV:  29    -0.680894186544E+02    0.15687E-03   -0.30563E-03  6520   0.152E-01    0.110E-01
DAV:  30    -0.680893945297E+02    0.24125E-04   -0.83185E-04  6624   0.881E-02    0.923E-02
DAV:  31    -0.680893190863E+02    0.75443E-04   -0.53525E-04  6624   0.711E-02    0.670E-02
DAV:  32    -0.680893059532E+02    0.13133E-04   -0.10504E-04  6088   0.273E-02    0.457E-02
DAV:  33    -0.680892972096E+02    0.87436E-05   -0.37364E-05  5416   0.176E-02    0.207E-02
DAV:  34    -0.680892946908E+02    0.25188E-05   -0.90387E-06  3112   0.106E-02
   1 F= -.68089295E+02 E0= -.68030148E+02  d E =-.118293E+00
Distance=1.000
 running on   16 total cores
 distrk:  each k-point on    8 cores,    2 groups
 distr:  one band on    4 cores,    2 groups
 using from now: INCAR     
 vasp.5.4.4.18Apr17-6-g9f103f2a35 (build Nov 27 2019 20:08:17) complex          
  
 POSCAR found type information on POSCAR  Ti
 POSCAR found :  1 types and      32 ions
 scaLAPACK will be used

 ----------------------------------------------------------------------------- 
|                                                                             |
|           W    W    AA    RRRRR   N    N  II  N    N   GGGG   !!!           |
|           W    W   A  A   R    R  NN   N  II  NN   N  G    G  !!!           |
|           W    W  A    A  R    R  N N  N  II  N N  N  G       !!!           |
|           W WW W  AAAAAA  RRRRR   N  N N  II  N  N N  G  GGG   !            |
|           WW  WW  A    A  R   R   N   NN  II  N   NN  G    G                |
|           W    W  A    A  R    R  N    N  II  N    N   GGGG   !!!           |
|                                                                             |
|      You have enabled k-point parallelism (KPAR>1).                         |
|      This developmental code was originally  written by Paul Kent at ORNL,  |
|      and carefully double checked in Vienna.                                |
|      GW as well as linear response parallelism added by Martijn Marsman     |
|      and Georg Kresse.                                                      |
|      Carefully verify results versus KPAR=1.                                |
|      Report problems to Paul Kent and Vienna.                               |
|                                                                             |
 ----------------------------------------------------------------------------- 

 LDA part: xc-table for Pade appr. of Perdew
 POSCAR found type information on POSCAR  Ti
 POSCAR found :  1 types and      32 ions
 POSCAR, INCAR and KPOINTS ok, starting setup
 FFT: planning ...
 WAVECAR not read
 entering main loop
       N       E                     dE             d eps       ncg     rms          rms(c)
DAV:   1     0.579856648971E+03    0.57986E+03   -0.36267E+04  1968   0.111E+03
DAV:   2    -0.166014058745E+03   -0.74587E+03   -0.71866E+03  1968   0.245E+02
DAV:   3    -0.277628314252E+03   -0.11161E+03   -0.10539E+03  3072   0.853E+01
DAV:   4    -0.286613049983E+03   -0.89847E+01   -0.83568E+01  3088   0.263E+01
DAV:   5    -0.287119048524E+03   -0.50600E+00   -0.48279E+00  3128   0.513E+00    0.670E+01
DAV:   6    -0.429633316847E+03   -0.14251E+03   -0.23943E+03  3696   0.973E+01    0.849E+01
DAV:   7    -0.246374778923E+03    0.18326E+03   -0.25040E+03  3424   0.153E+02    0.296E+01
DAV:   8    -0.255432743293E+03   -0.90580E+01   -0.53240E+02  3112   0.698E+01    0.319E+01
DAV:   9    -0.235891468798E+03    0.19541E+02   -0.10886E+02  3034   0.319E+01    0.195E+01
DAV:  10    -0.235415344202E+03    0.47612E+00   -0.11581E+01  3264   0.769E+00    0.174E+01
DAV:  11    -0.237174291345E+03   -0.17589E+01   -0.41241E+00  3264   0.493E+00    0.198E+01
DAV:  12    -0.233271571871E+03    0.39027E+01   -0.64854E+00  2726   0.975E+00    0.124E+01
DAV:  13    -0.230515084655E+03    0.27565E+01   -0.78484E+00  3012   0.102E+01    0.587E+00
DAV:  14    -0.230226390132E+03    0.28869E+00   -0.22825E+00  3264   0.383E+00    0.422E+00
DAV:  15    -0.230320807376E+03   -0.94417E-01   -0.10616E+00  2966   0.344E+00    0.490E+00
DAV:  16    -0.230017655061E+03    0.30315E+00   -0.25476E+00  3062   0.413E+00    0.182E+00
DAV:  17    -0.230025311499E+03   -0.76564E-02   -0.16881E-01  3040   0.135E+00    0.139E+00
DAV:  18    -0.229999920786E+03    0.25391E-01   -0.17238E-01  3048   0.117E+00    0.384E-01
DAV:  19    -0.230002591867E+03   -0.26711E-02   -0.24682E-02  3240   0.373E-01    0.227E-01
DAV:  20    -0.230006857245E+03   -0.42654E-02   -0.17500E-02  2912   0.459E-01    0.244E-01
DAV:  21    -0.230008742458E+03   -0.18852E-02   -0.79520E-03  2888   0.286E-01    0.153E-01
DAV:  22    -0.230009711772E+03   -0.96931E-03   -0.26586E-03  2816   0.147E-01    0.499E-02
DAV:  23    -0.230009998663E+03   -0.28689E-03   -0.38572E-04  2712   0.516E-02    0.481E-02
DAV:  24    -0.230009993511E+03    0.51521E-05   -0.12784E-04  3016   0.332E-02    0.195E-02
DAV:  25    -0.230009994620E+03   -0.11097E-05   -0.47519E-05  2600   0.211E-02
   1 F= -.23000999E+03 E0= -.22995216E+03  d E =-.115666E+00
 running on   16 total cores
 distrk:  each k-point on    8 cores,    2 groups
 distr:  one band on    4 cores,    2 groups
 using from now: INCAR     
 vasp.5.4.4.18Apr17-6-g9f103f2a35 (build Nov 27 2019 20:08:17) complex          
  
 POSCAR found type information on POSCAR  Ti
 POSCAR found :  1 types and      36 ions
 scaLAPACK will be used

 ----------------------------------------------------------------------------- 
|                                                                             |
|           W    W    AA    RRRRR   N    N  II  N    N   GGGG   !!!           |
|           W    W   A  A   R    R  NN   N  II  NN   N  G    G  !!!           |
|           W    W  A    A  R    R  N N  N  II  N N  N  G       !!!           |
|           W WW W  AAAAAA  RRRRR   N  N N  II  N  N N  G  GGG   !            |
|           WW  WW  A    A  R   R   N   NN  II  N   NN  G    G                |
|           W    W  A    A  R    R  N    N  II  N    N   GGGG   !!!           |
|                                                                             |
|      You have enabled k-point parallelism (KPAR>1).                         |
|      This developmental code was originally  written by Paul Kent at ORNL,  |
|      and carefully double checked in Vienna.                                |
|      GW as well as linear response parallelism added by Martijn Marsman     |
|      and Georg Kresse.                                                      |
|      Carefully verify results versus KPAR=1.                                |
|      Report problems to Paul Kent and Vienna.                               |
|                                                                             |
 ----------------------------------------------------------------------------- 

 LDA part: xc-table for Pade appr. of Perdew
 POSCAR found type information on POSCAR  Ti
 POSCAR found :  1 types and      36 ions
 POSCAR, INCAR and KPOINTS ok, starting setup
 FFT: planning ...
 WAVECAR not read
 WARNING: random wavefunctions but no delay for mixing, default for NELMDL
 entering main loop
       N       E                     dE             d eps       ncg     rms          rms(c)
DAV:   1     0.718347192068E+03    0.71835E+03   -0.41899E+04  2208   0.114E+03
DAV:   2    -0.193120500563E+03   -0.91147E+03   -0.87481E+03  2208   0.254E+02
DAV:   3    -0.325278142575E+03   -0.13216E+03   -0.12146E+03  3184   0.927E+01
DAV:   4    -0.334291161808E+03   -0.90130E+01   -0.83285E+01  3160   0.288E+01
DAV:   5    -0.334748332681E+03   -0.45717E+00   -0.43704E+00  3544   0.520E+00    0.824E+01
DAV:   6    -0.543291674344E+03   -0.20854E+03   -0.29977E+03  4160   0.966E+01    0.111E+02
DAV:   7    -0.287908149412E+03    0.25538E+03   -0.43492E+03  4072   0.163E+02    0.362E+01
DAV:   8    -0.280078336881E+03    0.78298E+01   -0.48206E+02  3196   0.746E+01    0.364E+01
DAV:   9    -0.274966497598E+03    0.51118E+01   -0.35611E+01  3620   0.142E+01    0.293E+01
DAV:  10    -0.276751155021E+03   -0.17847E+01   -0.33895E+00  3536   0.394E+00    0.312E+01
DAV:  11    -0.266149115463E+03    0.10602E+02   -0.16703E+01  3188   0.141E+01    0.154E+01
DAV:  12    -0.264608340765E+03    0.15408E+01   -0.20177E+00  3512   0.454E+00    0.117E+01
DAV:  13    -0.262497157262E+03    0.21112E+01   -0.79435E+00  3020   0.989E+00    0.239E+00
DAV:  14    -0.262463581080E+03    0.33576E-01   -0.61748E-01  3204   0.249E+00    0.174E+00
DAV:  15    -0.262473911690E+03   -0.10331E-01   -0.95361E-01  3464   0.279E+00    0.200E+00
DAV:  16    -0.262442388506E+03    0.31523E-01   -0.16197E-01  3356   0.117E+00    0.982E-01
DAV:  17    -0.262447597902E+03   -0.52094E-02   -0.36759E-02  2728   0.648E-01    0.406E-01
DAV:  18    -0.262449077240E+03   -0.14793E-02   -0.15249E-02  3368   0.391E-01    0.210E-01
DAV:  19    -0.262463479974E+03   -0.14403E-01   -0.40851E-02  3080   0.616E-01    0.625E-01
DAV:  20    -0.262458967703E+03    0.45123E-02   -0.29821E-02  3076   0.556E-01    0.965E-02
DAV:  21    -0.262459784815E+03   -0.81711E-03   -0.16882E-03  2968   0.122E-01    0.647E-02
DAV:  22    -0.262459862232E+03   -0.77418E-04   -0.30119E-04  2624   0.590E-02    0.124E-02
DAV:  23    -0.262459881324E+03   -0.19091E-04   -0.92408E-05  3248   0.229E-02    0.242E-02
DAV:  24    -0.262459875398E+03    0.59256E-05   -0.61628E-05  3172   0.242E-02    0.765E-03
DAV:  25    -0.262459875668E+03   -0.27008E-06   -0.18061E-06  1576   0.585E-03
   1 F= -.26245988E+03 E0= -.26240740E+03  d E =-.104952E+00
 running on   16 total cores
 distrk:  each k-point on    8 cores,    2 groups
 distr:  one band on    4 cores,    2 groups
 using from now: INCAR     
 vasp.5.4.4.18Apr17-6-g9f103f2a35 (build Nov 27 2019 20:08:17) complex          
  
 POSCAR found type information on POSCAR  Ti
 POSCAR found :  1 types and      68 ions
 scaLAPACK will be used

 ----------------------------------------------------------------------------- 
|                                                                             |
|           W    W    AA    RRRRR   N    N  II  N    N   GGGG   !!!           |
|           W    W   A  A   R    R  NN   N  II  NN   N  G    G  !!!           |
|           W    W  A    A  R    R  N N  N  II  N N  N  G       !!!           |
|           W WW W  AAAAAA  RRRRR   N  N N  II  N  N N  G  GGG   !            |
|           WW  WW  A    A  R   R   N   NN  II  N   NN  G    G                |
|           W    W  A    A  R    R  N    N  II  N    N   GGGG   !!!           |
|                                                                             |
|      You have enabled k-point parallelism (KPAR>1).                         |
|      This developmental code was originally  written by Paul Kent at ORNL,  |
|      and carefully double checked in Vienna.                                |
|      GW as well as linear response parallelism added by Martijn Marsman     |
|      and Georg Kresse.                                                      |
|      Carefully verify results versus KPAR=1.                                |
|      Report problems to Paul Kent and Vienna.                               |
|                                                                             |
 ----------------------------------------------------------------------------- 

 LDA part: xc-table for Pade appr. of Perdew
 POSCAR found type information on POSCAR  Ti
 POSCAR found :  1 types and      68 ions

 ----------------------------------------------------------------------------- 
|                                                                             |
|           W    W    AA    RRRRR   N    N  II  N    N   GGGG   !!!           |
|           W    W   A  A   R    R  NN   N  II  NN   N  G    G  !!!           |
|           W    W  A    A  R    R  N N  N  II  N N  N  G       !!!           |
|           W WW W  AAAAAA  RRRRR   N  N N  II  N  N N  G  GGG   !            |
|           WW  WW  A    A  R   R   N   NN  II  N   NN  G    G                |
|           W    W  A    A  R    R  N    N  II  N    N   GGGG   !!!           |
|                                                                             |
|      The distance between some ions is very small                           |
|      please check the nearest neigbor list in the OUTCAR file               |
|          I HOPE YOU KNOW, WHAT YOU ARE  DOING                               |
|                                                                             |
 ----------------------------------------------------------------------------- 

 POSCAR, INCAR and KPOINTS ok, starting setup
 FFT: planning ...
 WAVECAR not read
 WARNING: random wavefunctions but no delay for mixing, default for NELMDL
 entering main loop
       N       E                     dE             d eps       ncg     rms          rms(c)
DAV:   1     0.132285040515E+04    0.13229E+04   -0.79581E+04  4128   0.126E+03
DAV:   2    -0.317550500568E+03   -0.16404E+04   -0.15916E+04  4128   0.290E+02
DAV:   3    -0.547444389511E+03   -0.22989E+03   -0.21323E+03  5856   0.107E+02
DAV:   4    -0.566687712860E+03   -0.19243E+02   -0.18019E+02  5992   0.306E+01
DAV:   5    -0.567668638423E+03   -0.98093E+00   -0.94394E+00  6136   0.577E+00    0.122E+02
DAV:   6    -0.109663926810E+04   -0.52897E+03   -0.94975E+03  6932   0.282E+02    0.115E+02
DAV:   7    -0.847354570315E+03    0.24928E+03   -0.82124E+03  7204   0.219E+02    0.932E+01
DAV:   8    -0.454857394129E+03    0.39250E+03   -0.23926E+03  6396   0.148E+02    0.541E+01
DAV:   9    -0.458963767077E+03   -0.41064E+01   -0.75947E+02  7192   0.649E+01    0.465E+01
DAV:  10    -0.490800558228E+03   -0.31837E+02   -0.29149E+02  7760   0.528E+01    0.522E+01
DAV:  11    -0.452811634446E+03    0.37989E+02   -0.25905E+02  7636   0.511E+01    0.348E+01
DAV:  12    -0.454000302486E+03   -0.11887E+01   -0.39572E+02  6508   0.531E+01    0.306E+01
DAV:  13    -0.444762468865E+03    0.92378E+01   -0.60040E+01  6576   0.185E+01    0.221E+01
DAV:  14    -0.438637723568E+03    0.61247E+01   -0.15080E+01  6584   0.102E+01    0.147E+01
DAV:  15    -0.436512032952E+03    0.21257E+01   -0.92620E+00  6696   0.772E+00    0.943E+00
DAV:  16    -0.436417369119E+03    0.94664E-01   -0.39100E+00  6304   0.544E+00    0.890E+00
DAV:  17    -0.436077331123E+03    0.34004E+00   -0.14524E+00  6488   0.323E+00    0.718E+00
DAV:  18    -0.435839954954E+03    0.23738E+00   -0.63295E+00  6616   0.632E+00    0.502E+00
DAV:  19    -0.435693894344E+03    0.14606E+00   -0.20032E+00  6416   0.352E+00    0.342E+00
DAV:  20    -0.435570462178E+03    0.12343E+00   -0.11201E+00  6504   0.282E+00    0.174E+00
DAV:  21    -0.435557280297E+03    0.13182E-01   -0.44720E-01  6424   0.185E+00    0.152E+00
DAV:  22    -0.435551703714E+03    0.55766E-02   -0.13896E-01  6240   0.989E-01    0.131E+00
DAV:  23    -0.435532554916E+03    0.19149E-01   -0.73891E-02  6608   0.785E-01    0.538E-01
DAV:  24    -0.435539251225E+03   -0.66963E-02   -0.34210E-02  6344   0.567E-01    0.840E-01
DAV:  25    -0.435532093765E+03    0.71575E-02   -0.21355E-02  6600   0.429E-01    0.404E-01
DAV:  26    -0.435530742501E+03    0.13513E-02   -0.92754E-03  6416   0.234E-01    0.226E-01
DAV:  27    -0.435530225901E+03    0.51660E-03   -0.41613E-03  6656   0.162E-01    0.846E-02
DAV:  28    -0.435530165396E+03    0.60505E-04   -0.65093E-04  6288   0.698E-02    0.483E-02
DAV:  29    -0.435530288048E+03   -0.12265E-03   -0.84117E-04  6600   0.902E-02    0.104E-01
DAV:  30    -0.435530169072E+03    0.11898E-03   -0.81762E-04  6792   0.900E-02    0.336E-02
DAV:  31    -0.435530189022E+03   -0.19950E-04   -0.18518E-04  6768   0.340E-02    0.533E-02
DAV:  32    -0.435530153676E+03    0.35345E-04   -0.11805E-04  6400   0.337E-02    0.131E-02
DAV:  33    -0.435530153874E+03   -0.19747E-06   -0.63543E-06  2952   0.879E-03
   1 F= -.43553015E+03 E0= -.43546360E+03  d E =-.133101E+00
Distance=1.500
 running on   16 total cores
 distrk:  each k-point on    8 cores,    2 groups
 distr:  one band on    4 cores,    2 groups
 using from now: INCAR     
 vasp.5.4.4.18Apr17-6-g9f103f2a35 (build Nov 27 2019 20:08:17) complex          
  
 POSCAR found type information on POSCAR  Ti
 POSCAR found :  1 types and      32 ions
 scaLAPACK will be used

 ----------------------------------------------------------------------------- 
|                                                                             |
|           W    W    AA    RRRRR   N    N  II  N    N   GGGG   !!!           |
|           W    W   A  A   R    R  NN   N  II  NN   N  G    G  !!!           |
|           W    W  A    A  R    R  N N  N  II  N N  N  G       !!!           |
|           W WW W  AAAAAA  RRRRR   N  N N  II  N  N N  G  GGG   !            |
|           WW  WW  A    A  R   R   N   NN  II  N   NN  G    G                |
|           W    W  A    A  R    R  N    N  II  N    N   GGGG   !!!           |
|                                                                             |
|      You have enabled k-point parallelism (KPAR>1).                         |
|      This developmental code was originally  written by Paul Kent at ORNL,  |
|      and carefully double checked in Vienna.                                |
|      GW as well as linear response parallelism added by Martijn Marsman     |
|      and Georg Kresse.                                                      |
|      Carefully verify results versus KPAR=1.                                |
|      Report problems to Paul Kent and Vienna.                               |
|                                                                             |
 ----------------------------------------------------------------------------- 

 LDA part: xc-table for Pade appr. of Perdew
 POSCAR found type information on POSCAR  Ti
 POSCAR found :  1 types and      32 ions
 POSCAR, INCAR and KPOINTS ok, starting setup
 FFT: planning ...
 WAVECAR not read
 entering main loop
       N       E                     dE             d eps       ncg     rms          rms(c)
DAV:   1     0.586064790502E+03    0.58606E+03   -0.36194E+04  1968   0.110E+03
DAV:   2    -0.166486293693E+03   -0.75255E+03   -0.72437E+03  1968   0.243E+02
DAV:   3    -0.277463111600E+03   -0.11098E+03   -0.10475E+03  3072   0.843E+01
DAV:   4    -0.286540556451E+03   -0.90774E+01   -0.83975E+01  3080   0.260E+01
DAV:   5    -0.287112029420E+03   -0.57147E+00   -0.54412E+00  3160   0.531E+00    0.669E+01
DAV:   6    -0.426911895992E+03   -0.13980E+03   -0.23650E+03  3696   0.968E+01    0.844E+01
DAV:   7    -0.248236781801E+03    0.17868E+03   -0.25439E+03  3448   0.154E+02    0.296E+01
DAV:   8    -0.253703175969E+03   -0.54664E+01   -0.50067E+02  3048   0.678E+01    0.314E+01
DAV:   9    -0.236150465312E+03    0.17553E+02   -0.10354E+02  3044   0.307E+01    0.197E+01
DAV:  10    -0.235693506676E+03    0.45696E+00   -0.10641E+01  3264   0.744E+00    0.178E+01
DAV:  11    -0.237339967850E+03   -0.16465E+01   -0.40761E+00  3248   0.497E+00    0.200E+01
DAV:  12    -0.233599946684E+03    0.37400E+01   -0.64549E+00  2844   0.955E+00    0.131E+01
DAV:  13    -0.230560807577E+03    0.30391E+01   -0.84855E+00  2898   0.107E+01    0.623E+00
DAV:  14    -0.230262331172E+03    0.29848E+00   -0.22422E+00  3248   0.371E+00    0.452E+00
DAV:  15    -0.230325407449E+03   -0.63076E-01   -0.10429E+00  2918   0.348E+00    0.501E+00
DAV:  16    -0.230023645603E+03    0.30176E+00   -0.27924E+00  3062   0.422E+00    0.187E+00
DAV:  17    -0.230019190557E+03    0.44550E-02   -0.16566E-01  2952   0.128E+00    0.115E+00
DAV:  18    -0.230002223101E+03    0.16967E-01   -0.99732E-02  3088   0.879E-01    0.380E-01
DAV:  19    -0.230004264175E+03   -0.20411E-02   -0.24633E-02  3296   0.376E-01    0.262E-01
DAV:  20    -0.230006030393E+03   -0.17662E-02   -0.14434E-02  2912   0.430E-01    0.187E-01
DAV:  21    -0.230008132840E+03   -0.21024E-02   -0.52916E-03  2888   0.220E-01    0.150E-01
DAV:  22    -0.230009432422E+03   -0.12996E-02   -0.22294E-03  2872   0.133E-01    0.490E-02
DAV:  23    -0.230010206557E+03   -0.77413E-03   -0.47470E-04  2616   0.633E-02    0.573E-02
DAV:  24    -0.230010253729E+03   -0.47173E-04   -0.20101E-04  2728   0.488E-02    0.239E-02
DAV:  25    -0.230010253066E+03    0.66287E-06   -0.70744E-05  2800   0.257E-02    0.930E-03
DAV:  26    -0.230010253097E+03   -0.30922E-07   -0.97232E-06  1760   0.915E-03
   1 F= -.23001025E+03 E0= -.22995243E+03  d E =-.115650E+00
 running on   16 total cores
 distrk:  each k-point on    8 cores,    2 groups
 distr:  one band on    4 cores,    2 groups
 using from now: INCAR     
 vasp.5.4.4.18Apr17-6-g9f103f2a35 (build Nov 27 2019 20:08:17) complex          
  
 POSCAR found type information on POSCAR  Ti
 POSCAR found :  1 types and      36 ions
 scaLAPACK will be used

 ----------------------------------------------------------------------------- 
|                                                                             |
|           W    W    AA    RRRRR   N    N  II  N    N   GGGG   !!!           |
|           W    W   A  A   R    R  NN   N  II  NN   N  G    G  !!!           |
|           W    W  A    A  R    R  N N  N  II  N N  N  G       !!!           |
|           W WW W  AAAAAA  RRRRR   N  N N  II  N  N N  G  GGG   !            |
|           WW  WW  A    A  R   R   N   NN  II  N   NN  G    G                |
|           W    W  A    A  R    R  N    N  II  N    N   GGGG   !!!           |
|                                                                             |
|      You have enabled k-point parallelism (KPAR>1).                         |
|      This developmental code was originally  written by Paul Kent at ORNL,  |
|      and carefully double checked in Vienna.                                |
|      GW as well as linear response parallelism added by Martijn Marsman     |
|      and Georg Kresse.                                                      |
|      Carefully verify results versus KPAR=1.                                |
|      Report problems to Paul Kent and Vienna.                               |
|                                                                             |
 ----------------------------------------------------------------------------- 

 LDA part: xc-table for Pade appr. of Perdew
 POSCAR found type information on POSCAR  Ti
 POSCAR found :  1 types and      36 ions
 POSCAR, INCAR and KPOINTS ok, starting setup
 FFT: planning ...
 WAVECAR not read
 WARNING: random wavefunctions but no delay for mixing, default for NELMDL
 entering main loop
       N       E                     dE             d eps       ncg     rms          rms(c)
DAV:   1     0.730194829521E+03    0.73019E+03   -0.41880E+04  2208   0.113E+03
DAV:   2    -0.191875999206E+03   -0.92207E+03   -0.88583E+03  2208   0.253E+02
DAV:   3    -0.325249352191E+03   -0.13337E+03   -0.12271E+03  3232   0.921E+01
DAV:   4    -0.334273334086E+03   -0.90240E+01   -0.83691E+01  3184   0.288E+01
DAV:   5    -0.334747142013E+03   -0.47381E+00   -0.45037E+00  3536   0.533E+00    0.824E+01
DAV:   6    -0.539320958457E+03   -0.20457E+03   -0.29621E+03  4176   0.961E+01    0.111E+02
DAV:   7    -0.290564396443E+03    0.24876E+03   -0.44220E+03  4076   0.165E+02    0.366E+01
DAV:   8    -0.280520654016E+03    0.10044E+02   -0.49148E+02  3212   0.757E+01    0.367E+01
DAV:   9    -0.275713503892E+03    0.48072E+01   -0.34581E+01  3680   0.135E+01    0.299E+01
DAV:  10    -0.277943037297E+03   -0.22295E+01   -0.30663E+00  3488   0.408E+00    0.323E+01
DAV:  11    -0.264444570436E+03    0.13498E+02   -0.31465E+01  3212   0.192E+01    0.109E+01
DAV:  12    -0.263840545935E+03    0.60402E+00   -0.18371E+00  3544   0.428E+00    0.907E+00
DAV:  13    -0.262625757428E+03    0.12148E+01   -0.32615E+00  2992   0.638E+00    0.370E+00
DAV:  14    -0.262465591044E+03    0.16017E+00   -0.83071E-01  3192   0.316E+00    0.198E+00
DAV:  15    -0.262451840895E+03    0.13750E-01   -0.41674E-01  3484   0.190E+00    0.153E+00
DAV:  16    -0.262453814856E+03   -0.19740E-02   -0.89918E-02  3356   0.901E-01    0.111E+00
DAV:  17    -0.262453229397E+03    0.58546E-03   -0.81527E-02  3392   0.733E-01    0.641E-01
DAV:  18    -0.262451691069E+03    0.15383E-02   -0.88574E-02  3012   0.102E+00    0.408E-01
DAV:  19    -0.262458025573E+03   -0.63345E-02   -0.50381E-03  2728   0.177E-01    0.429E-01
DAV:  20    -0.262458590896E+03   -0.56532E-03   -0.55104E-03  2428   0.276E-01    0.129E-01
DAV:  21    -0.262460127779E+03   -0.15369E-02   -0.25297E-03  2944   0.158E-01    0.556E-02
DAV:  22    -0.262460214704E+03   -0.86925E-04   -0.18568E-04  3288   0.353E-02    0.325E-02
DAV:  23    -0.262460245873E+03   -0.31169E-04   -0.10547E-04  2568   0.371E-02    0.202E-02
DAV:  24    -0.262460241551E+03    0.43215E-05   -0.75270E-05  2776   0.306E-02    0.718E-03
DAV:  25    -0.262460241232E+03    0.31909E-06   -0.34182E-06  1680   0.583E-03
   1 F= -.26246024E+03 E0= -.26240778E+03  d E =-.104915E+00
 running on   16 total cores
 distrk:  each k-point on    8 cores,    2 groups
 distr:  one band on    4 cores,    2 groups
 using from now: INCAR     
 vasp.5.4.4.18Apr17-6-g9f103f2a35 (build Nov 27 2019 20:08:17) complex          
  
 POSCAR found type information on POSCAR  Ti
 POSCAR found :  1 types and      68 ions
 scaLAPACK will be used

 ----------------------------------------------------------------------------- 
|                                                                             |
|           W    W    AA    RRRRR   N    N  II  N    N   GGGG   !!!           |
|           W    W   A  A   R    R  NN   N  II  NN   N  G    G  !!!           |
|           W    W  A    A  R    R  N N  N  II  N N  N  G       !!!           |
|           W WW W  AAAAAA  RRRRR   N  N N  II  N  N N  G  GGG   !            |
|           WW  WW  A    A  R   R   N   NN  II  N   NN  G    G                |
|           W    W  A    A  R    R  N    N  II  N    N   GGGG   !!!           |
|                                                                             |
|      You have enabled k-point parallelism (KPAR>1).                         |
|      This developmental code was originally  written by Paul Kent at ORNL,  |
|      and carefully double checked in Vienna.                                |
|      GW as well as linear response parallelism added by Martijn Marsman     |
|      and Georg Kresse.                                                      |
|      Carefully verify results versus KPAR=1.                                |
|      Report problems to Paul Kent and Vienna.                               |
|                                                                             |
 ----------------------------------------------------------------------------- 

 LDA part: xc-table for Pade appr. of Perdew
 POSCAR found type information on POSCAR  Ti
 POSCAR found :  1 types and      68 ions

 ----------------------------------------------------------------------------- 
|                                                                             |
|           W    W    AA    RRRRR   N    N  II  N    N   GGGG   !!!           |
|           W    W   A  A   R    R  NN   N  II  NN   N  G    G  !!!           |
|           W    W  A    A  R    R  N N  N  II  N N  N  G       !!!           |
|           W WW W  AAAAAA  RRRRR   N  N N  II  N  N N  G  GGG   !            |
|           WW  WW  A    A  R   R   N   NN  II  N   NN  G    G                |
|           W    W  A    A  R    R  N    N  II  N    N   GGGG   !!!           |
|                                                                             |
|      The distance between some ions is very small                           |
|      please check the nearest neigbor list in the OUTCAR file               |
|          I HOPE YOU KNOW, WHAT YOU ARE  DOING                               |
|                                                                             |
 ----------------------------------------------------------------------------- 

 POSCAR, INCAR and KPOINTS ok, starting setup
 FFT: planning ...
 WAVECAR not read
 WARNING: random wavefunctions but no delay for mixing, default for NELMDL
 entering main loop
       N       E                     dE             d eps       ncg     rms          rms(c)
DAV:   1     0.122088772377E+04    0.12209E+04   -0.78506E+04  4128   0.124E+03
DAV:   2    -0.341634483787E+03   -0.15625E+04   -0.15158E+04  4128   0.279E+02
DAV:   3    -0.566953564674E+03   -0.22532E+03   -0.20897E+03  5944   0.992E+01
DAV:   4    -0.585306299600E+03   -0.18353E+02   -0.17103E+02  6072   0.288E+01
DAV:   5    -0.586088793739E+03   -0.78249E+00   -0.75741E+00  5920   0.473E+00    0.108E+02
DAV:   6    -0.132692774778E+04   -0.74084E+03   -0.76095E+03  8192   0.160E+02    0.136E+02
DAV:   7    -0.614067123356E+03    0.71286E+03   -0.92248E+03  7520   0.164E+02    0.643E+01
DAV:   8    -0.561750561149E+03    0.52317E+02   -0.21670E+03  7648   0.117E+02    0.670E+01
DAV:   9    -0.560140895749E+03    0.16097E+01   -0.11307E+03  7448   0.926E+01    0.518E+01
DAV:  10    -0.520782102919E+03    0.39359E+02   -0.39461E+02  6928   0.527E+01    0.404E+01
DAV:  11    -0.516619582978E+03    0.41625E+01   -0.61829E+01  6664   0.179E+01    0.361E+01
DAV:  12    -0.513883559819E+03    0.27360E+01   -0.60568E+00  6192   0.613E+00    0.313E+01
DAV:  13    -0.510216292777E+03    0.36673E+01   -0.11295E+01  6440   0.898E+00    0.229E+01
DAV:  14    -0.506917678406E+03    0.32986E+01   -0.10666E+01  6264   0.856E+00    0.159E+01
DAV:  15    -0.505664453756E+03    0.12532E+01   -0.40113E+00  6344   0.545E+00    0.123E+01
DAV:  16    -0.504829434425E+03    0.83502E+00   -0.22602E+00  6120   0.437E+00    0.914E+00
DAV:  17    -0.504458174863E+03    0.37126E+00   -0.24745E+00  6280   0.426E+00    0.735E+00
DAV:  18    -0.504109915400E+03    0.34826E+00   -0.17191E+00  6352   0.347E+00    0.568E+00
DAV:  19    -0.503833367160E+03    0.27655E+00   -0.98429E-01  6248   0.281E+00    0.335E+00
DAV:  20    -0.503703109971E+03    0.13026E+00   -0.95689E-01  5280   0.291E+00    0.109E+00
DAV:  21    -0.503690675569E+03    0.12434E-01   -0.19763E-01  6192   0.130E+00    0.598E-01
DAV:  22    -0.503685231300E+03    0.54443E-02   -0.44271E-02  6128   0.587E-01    0.335E-01
DAV:  23    -0.503684200050E+03    0.10313E-02   -0.94882E-03  6304   0.252E-01    0.252E-01
DAV:  24    -0.503683931087E+03    0.26896E-03   -0.59478E-03  6280   0.194E-01    0.205E-01
DAV:  25    -0.503683383492E+03    0.54760E-03   -0.85037E-03  5968   0.259E-01    0.194E-01
DAV:  26    -0.503683119938E+03    0.26355E-03   -0.28985E-03  6096   0.140E-01    0.989E-02
DAV:  27    -0.503683091896E+03    0.28042E-04   -0.11013E-03  6160   0.865E-02    0.497E-02
DAV:  28    -0.503683077937E+03    0.13959E-04   -0.38769E-04  6200   0.485E-02    0.407E-02
DAV:  29    -0.503683059876E+03    0.18061E-04   -0.12144E-04  6192   0.298E-02    0.224E-02
DAV:  30    -0.503683050425E+03    0.94509E-05   -0.43089E-05  5264   0.186E-02    0.807E-03
DAV:  31    -0.503683048371E+03    0.20544E-05   -0.93169E-06  2936   0.914E-03
   1 F= -.50368305E+03 E0= -.50360596E+03  d E =-.154174E+00
Distance=2.000
 running on   16 total cores
 distrk:  each k-point on    8 cores,    2 groups
 distr:  one band on    4 cores,    2 groups
 using from now: INCAR     
 vasp.5.4.4.18Apr17-6-g9f103f2a35 (build Nov 27 2019 20:08:17) complex          
  
 POSCAR found type information on POSCAR  Ti
 POSCAR found :  1 types and      32 ions
 scaLAPACK will be used

 ----------------------------------------------------------------------------- 
|                                                                             |
|           W    W    AA    RRRRR   N    N  II  N    N   GGGG   !!!           |
|           W    W   A  A   R    R  NN   N  II  NN   N  G    G  !!!           |
|           W    W  A    A  R    R  N N  N  II  N N  N  G       !!!           |
|           W WW W  AAAAAA  RRRRR   N  N N  II  N  N N  G  GGG   !            |
|           WW  WW  A    A  R   R   N   NN  II  N   NN  G    G                |
|           W    W  A    A  R    R  N    N  II  N    N   GGGG   !!!           |
|                                                                             |
|      You have enabled k-point parallelism (KPAR>1).                         |
|      This developmental code was originally  written by Paul Kent at ORNL,  |
|      and carefully double checked in Vienna.                                |
|      GW as well as linear response parallelism added by Martijn Marsman     |
|      and Georg Kresse.                                                      |
|      Carefully verify results versus KPAR=1.                                |
|      Report problems to Paul Kent and Vienna.                               |
|                                                                             |
 ----------------------------------------------------------------------------- 

 LDA part: xc-table for Pade appr. of Perdew
 POSCAR found type information on POSCAR  Ti
 POSCAR found :  1 types and      32 ions
 POSCAR, INCAR and KPOINTS ok, starting setup
 FFT: planning ...
 WAVECAR not read
 entering main loop
       N       E                     dE             d eps       ncg     rms          rms(c)
DAV:   1     0.593225586025E+03    0.59323E+03   -0.36057E+04  1968   0.109E+03
DAV:   2    -0.165876227306E+03   -0.75910E+03   -0.73065E+03  1968   0.242E+02
DAV:   3    -0.277408166921E+03   -0.11153E+03   -0.10527E+03  3096   0.839E+01
DAV:   4    -0.286543061474E+03   -0.91349E+01   -0.84674E+01  3104   0.263E+01
DAV:   5    -0.287109322093E+03   -0.56626E+00   -0.53697E+00  3152   0.533E+00    0.669E+01
DAV:   6    -0.423221822140E+03   -0.13611E+03   -0.23170E+03  3680   0.960E+01    0.841E+01
DAV:   7    -0.250151587558E+03    0.17307E+03   -0.25858E+03  3416   0.156E+02    0.296E+01
DAV:   8    -0.252871319020E+03   -0.27197E+01   -0.47707E+02  3078   0.663E+01    0.310E+01
DAV:   9    -0.236426059005E+03    0.16445E+02   -0.95294E+01  3062   0.294E+01    0.199E+01
DAV:  10    -0.235913665637E+03    0.51239E+00   -0.10703E+01  3224   0.721E+00    0.180E+01
DAV:  11    -0.237379824197E+03   -0.14662E+01   -0.39311E+00  3256   0.484E+00    0.200E+01
DAV:  12    -0.234039924746E+03    0.33399E+01   -0.59562E+00  3024   0.892E+00    0.140E+01
DAV:  13    -0.230661035754E+03    0.33789E+01   -0.88978E+00  2864   0.109E+01    0.652E+00
DAV:  14    -0.230304354256E+03    0.35668E+00   -0.19739E+00  3248   0.352E+00    0.467E+00
DAV:  15    -0.230261104240E+03    0.43250E-01   -0.13397E+00  2776   0.429E+00    0.462E+00
DAV:  16    -0.230029002903E+03    0.23210E+00   -0.20611E+00  3094   0.375E+00    0.174E+00
DAV:  17    -0.230019711863E+03    0.92910E-02   -0.12386E-01  2984   0.107E+00    0.101E+00
DAV:  18    -0.230004321530E+03    0.15390E-01   -0.78811E-02  3184   0.748E-01    0.373E-01
DAV:  19    -0.230004257030E+03    0.64500E-04   -0.21695E-02  3264   0.394E-01    0.193E-01
DAV:  20    -0.230005406121E+03   -0.11491E-02   -0.84038E-03  2992   0.330E-01    0.180E-01
DAV:  21    -0.230005926302E+03   -0.52018E-03   -0.40137E-03  2560   0.226E-01    0.109E-01
DAV:  22    -0.230007885169E+03   -0.19589E-02   -0.39741E-03  3008   0.173E-01    0.126E-01
DAV:  23    -0.230008471214E+03   -0.58604E-03   -0.71667E-04  2824   0.876E-02    0.541E-02
DAV:  24    -0.230008820811E+03   -0.34960E-03   -0.33825E-04  3088   0.497E-02    0.219E-02
DAV:  25    -0.230008942498E+03   -0.12169E-03   -0.84561E-05  2520   0.295E-02    0.107E-02
DAV:  26    -0.230008954758E+03   -0.12260E-04   -0.15872E-05  1992   0.114E-02    0.122E-02
DAV:  27    -0.230008957092E+03   -0.23330E-05   -0.82250E-06  1640   0.103E-02
   1 F= -.23000896E+03 E0= -.22995114E+03  d E =-.115641E+00
 running on   16 total cores
 distrk:  each k-point on    8 cores,    2 groups
 distr:  one band on    4 cores,    2 groups
 using from now: INCAR     
 vasp.5.4.4.18Apr17-6-g9f103f2a35 (build Nov 27 2019 20:08:17) complex          
  
 POSCAR found type information on POSCAR  Ti
 POSCAR found :  1 types and      36 ions
 scaLAPACK will be used

 ----------------------------------------------------------------------------- 
|                                                                             |
|           W    W    AA    RRRRR   N    N  II  N    N   GGGG   !!!           |
|           W    W   A  A   R    R  NN   N  II  NN   N  G    G  !!!           |
|           W    W  A    A  R    R  N N  N  II  N N  N  G       !!!           |
|           W WW W  AAAAAA  RRRRR   N  N N  II  N  N N  G  GGG   !            |
|           WW  WW  A    A  R   R   N   NN  II  N   NN  G    G                |
|           W    W  A    A  R    R  N    N  II  N    N   GGGG   !!!           |
|                                                                             |
|      You have enabled k-point parallelism (KPAR>1).                         |
|      This developmental code was originally  written by Paul Kent at ORNL,  |
|      and carefully double checked in Vienna.                                |
|      GW as well as linear response parallelism added by Martijn Marsman     |
|      and Georg Kresse.                                                      |
|      Carefully verify results versus KPAR=1.                                |
|      Report problems to Paul Kent and Vienna.                               |
|                                                                             |
 ----------------------------------------------------------------------------- 

 LDA part: xc-table for Pade appr. of Perdew
 POSCAR found type information on POSCAR  Ti
 POSCAR found :  1 types and      36 ions
 POSCAR, INCAR and KPOINTS ok, starting setup
 FFT: planning ...
 WAVECAR not read
 WARNING: random wavefunctions but no delay for mixing, default for NELMDL
 entering main loop
       N       E                     dE             d eps       ncg     rms          rms(c)
DAV:   1     0.740425029297E+03    0.74043E+03   -0.41800E+04  2208   0.112E+03
DAV:   2    -0.190825924049E+03   -0.93125E+03   -0.89399E+03  2208   0.252E+02
DAV:   3    -0.325126457817E+03   -0.13430E+03   -0.12378E+03  3248   0.913E+01
DAV:   4    -0.334212110352E+03   -0.90857E+01   -0.83970E+01  3144   0.289E+01
DAV:   5    -0.334741323432E+03   -0.52921E+00   -0.50285E+00  3608   0.550E+00    0.825E+01
DAV:   6    -0.533478956722E+03   -0.19874E+03   -0.28977E+03  4160   0.953E+01    0.110E+02
DAV:   7    -0.294453987882E+03    0.23902E+03   -0.45387E+03  4068   0.166E+02    0.374E+01
DAV:   8    -0.280933570711E+03    0.13520E+02   -0.49747E+02  3160   0.768E+01    0.369E+01
DAV:   9    -0.276400911072E+03    0.45327E+01   -0.33752E+01  3728   0.134E+01    0.306E+01
DAV:  10    -0.280042220943E+03   -0.36413E+01   -0.41082E+00  3324   0.492E+00    0.345E+01
DAV:  11    -0.265298489535E+03    0.14744E+02   -0.33332E+01  3168   0.202E+01    0.132E+01
DAV:  12    -0.263198803850E+03    0.20997E+01   -0.71036E+00  3528   0.817E+00    0.663E+00
DAV:  13    -0.262902734194E+03    0.29607E+00   -0.53448E-01  3196   0.245E+00    0.541E+00
DAV:  14    -0.262554084534E+03    0.34865E+00   -0.13160E+00  2676   0.443E+00    0.320E+00
DAV:  15    -0.262467873877E+03    0.86211E-01   -0.33630E-01  3424   0.155E+00    0.165E+00
DAV:  16    -0.262470270177E+03   -0.23963E-02   -0.20459E-02  2976   0.458E-01    0.145E+00
DAV:  17    -0.262448650001E+03    0.21620E-01   -0.25081E-01  3472   0.130E+00    0.373E-01
DAV:  18    -0.262451046819E+03   -0.23968E-02   -0.42022E-02  3256   0.685E-01    0.354E-01
DAV:  19    -0.262454923067E+03   -0.38762E-02   -0.16206E-02  3400   0.399E-01    0.304E-01
DAV:  20    -0.262457021280E+03   -0.20982E-02   -0.26113E-03  2928   0.164E-01    0.213E-01
DAV:  21    -0.262457989003E+03   -0.96772E-03   -0.48254E-03  3152   0.239E-01    0.867E-02
DAV:  22    -0.262458662306E+03   -0.67330E-03   -0.17952E-03  2952   0.162E-01    0.849E-02
DAV:  23    -0.262458826324E+03   -0.16402E-03   -0.49923E-04  2928   0.741E-02    0.275E-02
DAV:  24    -0.262458859191E+03   -0.32866E-04   -0.21119E-05  2360   0.176E-02    0.189E-02
DAV:  25    -0.262458869940E+03   -0.10749E-04   -0.30484E-05  2408   0.213E-02    0.116E-02
DAV:  26    -0.262458869877E+03    0.62711E-07   -0.37017E-06  1696   0.683E-03
   1 F= -.26245887E+03 E0= -.26240641E+03  d E =-.104914E+00
 running on   16 total cores
 distrk:  each k-point on    8 cores,    2 groups
 distr:  one band on    4 cores,    2 groups
 using from now: INCAR     
 vasp.5.4.4.18Apr17-6-g9f103f2a35 (build Nov 27 2019 20:08:17) complex          
  
 POSCAR found type information on POSCAR  Ti
 POSCAR found :  1 types and      68 ions
 scaLAPACK will be used

 ----------------------------------------------------------------------------- 
|                                                                             |
|           W    W    AA    RRRRR   N    N  II  N    N   GGGG   !!!           |
|           W    W   A  A   R    R  NN   N  II  NN   N  G    G  !!!           |
|           W    W  A    A  R    R  N N  N  II  N N  N  G       !!!           |
|           W WW W  AAAAAA  RRRRR   N  N N  II  N  N N  G  GGG   !            |
|           WW  WW  A    A  R   R   N   NN  II  N   NN  G    G                |
|           W    W  A    A  R    R  N    N  II  N    N   GGGG   !!!           |
|                                                                             |
|      You have enabled k-point parallelism (KPAR>1).                         |
|      This developmental code was originally  written by Paul Kent at ORNL,  |
|      and carefully double checked in Vienna.                                |
|      GW as well as linear response parallelism added by Martijn Marsman     |
|      and Georg Kresse.                                                      |
|      Carefully verify results versus KPAR=1.                                |
|      Report problems to Paul Kent and Vienna.                               |
|                                                                             |
 ----------------------------------------------------------------------------- 

 LDA part: xc-table for Pade appr. of Perdew
 POSCAR found type information on POSCAR  Ti
 POSCAR found :  1 types and      68 ions
 POSCAR, INCAR and KPOINTS ok, starting setup
 FFT: planning ...
 WAVECAR not read
 WARNING: random wavefunctions but no delay for mixing, default for NELMDL
 entering main loop
       N       E                     dE             d eps       ncg     rms          rms(c)
DAV:   1     0.117101396155E+04    0.11710E+04   -0.78094E+04  4128   0.123E+03
DAV:   2    -0.356041485131E+03   -0.15271E+04   -0.14821E+04  4128   0.275E+02
DAV:   3    -0.581065931669E+03   -0.22502E+03   -0.20834E+03  6104   0.961E+01
DAV:   4    -0.599598190625E+03   -0.18532E+02   -0.17421E+02  6160   0.281E+01
DAV:   5    -0.600366753677E+03   -0.76856E+00   -0.74405E+00  6024   0.457E+00    0.106E+02
DAV:   6    -0.151181244191E+04   -0.91145E+03   -0.93297E+03  8092   0.174E+02    0.120E+02
DAV:   7    -0.650966122785E+03    0.86085E+03   -0.87245E+03  7608   0.150E+02    0.853E+01
DAV:   8    -0.527969747873E+03    0.12300E+03   -0.28781E+03  6544   0.158E+02    0.436E+01
DAV:   9    -0.551279807205E+03   -0.23310E+02   -0.83335E+02  7136   0.656E+01    0.428E+01
DAV:  10    -0.547470059521E+03    0.38097E+01   -0.20416E+02  6832   0.327E+01    0.432E+01
DAV:  11    -0.540221458316E+03    0.72486E+01   -0.22979E+01  6624   0.115E+01    0.405E+01
DAV:  12    -0.537460699708E+03    0.27608E+01   -0.22195E+00  6192   0.332E+00    0.387E+01
DAV:  13    -0.523287020317E+03    0.14174E+02   -0.17538E+01  6392   0.106E+01    0.255E+01
DAV:  14    -0.517274403530E+03    0.60126E+01   -0.17094E+01  6488   0.104E+01    0.167E+01
DAV:  15    -0.515086705534E+03    0.21877E+01   -0.39217E+00  6296   0.523E+00    0.123E+01
DAV:  16    -0.513526107376E+03    0.15606E+01   -0.19052E+00  6136   0.345E+00    0.872E+00
DAV:  17    -0.513160185433E+03    0.36592E+00   -0.27111E+00  6488   0.409E+00    0.802E+00
DAV:  18    -0.512822433143E+03    0.33775E+00   -0.13712E+00  6352   0.315E+00    0.720E+00
DAV:  19    -0.512277817052E+03    0.54462E+00   -0.10111E+00  6528   0.250E+00    0.559E+00
DAV:  20    -0.512130831361E+03    0.14699E+00   -0.96478E-01  6480   0.253E+00    0.503E+00
DAV:  21    -0.511750821742E+03    0.38001E+00   -0.13389E+00  6088   0.322E+00    0.218E+00
DAV:  22    -0.511775773345E+03   -0.24952E-01   -0.48201E-01  6440   0.184E+00    0.210E+00
DAV:  23    -0.511722191725E+03    0.53582E-01   -0.14702E-01  6312   0.101E+00    0.130E+00
DAV:  24    -0.511697871386E+03    0.24320E-01   -0.84892E-02  6592   0.669E-01    0.759E-01
DAV:  25    -0.511692197444E+03    0.56739E-02   -0.27827E-02  6544   0.418E-01    0.542E-01
DAV:  26    -0.511690006998E+03    0.21904E-02   -0.12507E-02  6392   0.273E-01    0.405E-01
DAV:  27    -0.511689745247E+03    0.26175E-03   -0.31746E-03  6360   0.147E-01    0.345E-01
DAV:  28    -0.511690033456E+03   -0.28821E-03   -0.31755E-03  6272   0.143E-01    0.321E-01
DAV:  29    -0.511688659538E+03    0.13739E-02   -0.50908E-03  6784   0.187E-01    0.176E-01
DAV:  30    -0.511688414005E+03    0.24553E-03   -0.14112E-03  6352   0.848E-02    0.122E-01
DAV:  31    -0.511688345317E+03    0.68688E-04   -0.43230E-04  6432   0.484E-02    0.762E-02
DAV:  32    -0.511688391381E+03   -0.46064E-04   -0.29258E-04  6736   0.402E-02    0.754E-02
DAV:  33    -0.511688316386E+03    0.74995E-04   -0.16465E-04  5672   0.379E-02    0.335E-02
DAV:  34    -0.511688309107E+03    0.72783E-05   -0.17867E-05  3696   0.115E-02    0.244E-02
DAV:  35    -0.511688294743E+03    0.14364E-04   -0.27536E-05  4416   0.123E-02    0.932E-03
DAV:  36    -0.511688293295E+03    0.14489E-05   -0.14621E-05  3344   0.963E-03
   1 F= -.51168829E+03 E0= -.51160903E+03  d E =-.158517E+00
Distance=2.500
 running on   16 total cores
 distrk:  each k-point on    8 cores,    2 groups
 distr:  one band on    4 cores,    2 groups
 using from now: INCAR     
 vasp.5.4.4.18Apr17-6-g9f103f2a35 (build Nov 27 2019 20:08:17) complex          
  
 POSCAR found type information on POSCAR  Ti
 POSCAR found :  1 types and      32 ions
 scaLAPACK will be used

 ----------------------------------------------------------------------------- 
|                                                                             |
|           W    W    AA    RRRRR   N    N  II  N    N   GGGG   !!!           |
|           W    W   A  A   R    R  NN   N  II  NN   N  G    G  !!!           |
|           W    W  A    A  R    R  N N  N  II  N N  N  G       !!!           |
|           W WW W  AAAAAA  RRRRR   N  N N  II  N  N N  G  GGG   !            |
|           WW  WW  A    A  R   R   N   NN  II  N   NN  G    G                |
|           W    W  A    A  R    R  N    N  II  N    N   GGGG   !!!           |
|                                                                             |
|      You have enabled k-point parallelism (KPAR>1).                         |
|      This developmental code was originally  written by Paul Kent at ORNL,  |
|      and carefully double checked in Vienna.                                |
|      GW as well as linear response parallelism added by Martijn Marsman     |
|      and Georg Kresse.                                                      |
|      Carefully verify results versus KPAR=1.                                |
|      Report problems to Paul Kent and Vienna.                               |
|                                                                             |
 ----------------------------------------------------------------------------- 

 LDA part: xc-table for Pade appr. of Perdew
 POSCAR found type information on POSCAR  Ti
 POSCAR found :  1 types and      32 ions
 POSCAR, INCAR and KPOINTS ok, starting setup
 FFT: planning ...
 WAVECAR not read
 entering main loop
       N       E                     dE             d eps       ncg     rms          rms(c)
DAV:   1     0.599755170373E+03    0.59976E+03   -0.35899E+04  1968   0.108E+03
DAV:   2    -0.164444720785E+03   -0.76420E+03   -0.73535E+03  1968   0.241E+02
DAV:   3    -0.276882641045E+03   -0.11244E+03   -0.10611E+03  3088   0.834E+01
DAV:   4    -0.286495359773E+03   -0.96127E+01   -0.89186E+01  3088   0.266E+01
DAV:   5    -0.287108202982E+03   -0.61284E+00   -0.58254E+00  3144   0.564E+00    0.669E+01
DAV:   6    -0.419243256584E+03   -0.13214E+03   -0.22675E+03  3656   0.953E+01    0.836E+01
DAV:   7    -0.252030705515E+03    0.16721E+03   -0.26151E+03  3416   0.157E+02    0.297E+01
DAV:   8    -0.251430274727E+03    0.60043E+00   -0.45262E+02  3034   0.649E+01    0.306E+01
DAV:   9    -0.236676779325E+03    0.14753E+02   -0.90370E+01  3046   0.283E+01    0.201E+01
DAV:  10    -0.236232955820E+03    0.44382E+00   -0.99591E+00  3256   0.694E+00    0.185E+01
DAV:  11    -0.237339253740E+03   -0.11063E+01   -0.37813E+00  3264   0.466E+00    0.199E+01
DAV:  12    -0.234649504151E+03    0.26897E+01   -0.49125E+00  3070   0.780E+00    0.151E+01
DAV:  13    -0.230753547404E+03    0.38960E+01   -0.98978E+00  2788   0.116E+01    0.695E+00
DAV:  14    -0.230363355634E+03    0.39019E+00   -0.21260E+00  3304   0.366E+00    0.513E+00
DAV:  15    -0.230244598700E+03    0.11876E+00   -0.14650E+00  2696   0.456E+00    0.472E+00
DAV:  16    -0.230028960002E+03    0.21564E+00   -0.17249E+00  3136   0.341E+00    0.154E+00
DAV:  17    -0.230022338937E+03    0.66211E-02   -0.11780E-01  3008   0.101E+00    0.913E-01
DAV:  18    -0.230007931237E+03    0.14408E-01   -0.99718E-02  3176   0.777E-01    0.397E-01
DAV:  19    -0.230006534167E+03    0.13971E-02   -0.14799E-02  3040   0.367E-01    0.174E-01
DAV:  20    -0.230006712168E+03   -0.17800E-03   -0.68656E-03  2944   0.299E-01    0.150E-01
DAV:  21    -0.230006160152E+03    0.55202E-03   -0.30885E-03  2464   0.198E-01    0.600E-02
DAV:  22    -0.230007352308E+03   -0.11922E-02   -0.10255E-03  2944   0.873E-02    0.783E-02
DAV:  23    -0.230007999597E+03   -0.64729E-03   -0.47852E-04  2640   0.844E-02    0.443E-02
DAV:  24    -0.230008667156E+03   -0.66756E-03   -0.28502E-04  2904   0.441E-02    0.342E-02
DAV:  25    -0.230008902404E+03   -0.23525E-03   -0.13216E-04  2512   0.406E-02    0.127E-02
DAV:  26    -0.230008980841E+03   -0.78437E-04   -0.38467E-05  2560   0.171E-02    0.173E-02
DAV:  27    -0.230008988034E+03   -0.71933E-05   -0.22134E-05  2136   0.152E-02    0.487E-03
DAV:  28    -0.230008989069E+03   -0.10344E-05   -0.19952E-06  1376   0.535E-03
   1 F= -.23000899E+03 E0= -.22995117E+03  d E =-.115642E+00
 running on   16 total cores
 distrk:  each k-point on    8 cores,    2 groups
 distr:  one band on    4 cores,    2 groups
 using from now: INCAR     
 vasp.5.4.4.18Apr17-6-g9f103f2a35 (build Nov 27 2019 20:08:17) complex          
  
 POSCAR found type information on POSCAR  Ti
 POSCAR found :  1 types and      36 ions
 scaLAPACK will be used

 ----------------------------------------------------------------------------- 
|                                                                             |
|           W    W    AA    RRRRR   N    N  II  N    N   GGGG   !!!           |
|           W    W   A  A   R    R  NN   N  II  NN   N  G    G  !!!           |
|           W    W  A    A  R    R  N N  N  II  N N  N  G       !!!           |
|           W WW W  AAAAAA  RRRRR   N  N N  II  N  N N  G  GGG   !            |
|           WW  WW  A    A  R   R   N   NN  II  N   NN  G    G                |
|           W    W  A    A  R    R  N    N  II  N    N   GGGG   !!!           |
|                                                                             |
|      You have enabled k-point parallelism (KPAR>1).                         |
|      This developmental code was originally  written by Paul Kent at ORNL,  |
|      and carefully double checked in Vienna.                                |
|      GW as well as linear response parallelism added by Martijn Marsman     |
|      and Georg Kresse.                                                      |
|      Carefully verify results versus KPAR=1.                                |
|      Report problems to Paul Kent and Vienna.                               |
|                                                                             |
 ----------------------------------------------------------------------------- 

 LDA part: xc-table for Pade appr. of Perdew
 POSCAR found type information on POSCAR  Ti
 POSCAR found :  1 types and      36 ions
 POSCAR, INCAR and KPOINTS ok, starting setup
 FFT: planning ...
 WAVECAR not read
 WARNING: random wavefunctions but no delay for mixing, default for NELMDL
 entering main loop
       N       E                     dE             d eps       ncg     rms          rms(c)
DAV:   1     0.749037302921E+03    0.74904E+03   -0.41647E+04  2208   0.111E+03
DAV:   2    -0.189635578457E+03   -0.93867E+03   -0.90103E+03  2208   0.251E+02
DAV:   3    -0.324554550890E+03   -0.13492E+03   -0.12438E+03  3232   0.908E+01
DAV:   4    -0.334185834366E+03   -0.96313E+01   -0.88750E+01  3160   0.294E+01
DAV:   5    -0.334742799705E+03   -0.55697E+00   -0.53185E+00  3632   0.574E+00    0.824E+01
DAV:   6    -0.526720307084E+03   -0.19198E+03   -0.28254E+03  4176   0.944E+01    0.109E+02
DAV:   7    -0.297111206020E+03    0.22961E+03   -0.45961E+03  4100   0.168E+02    0.380E+01
DAV:   8    -0.281507334682E+03    0.15604E+02   -0.50390E+02  3176   0.782E+01    0.372E+01
DAV:   9    -0.277436488637E+03    0.40708E+01   -0.34218E+01  3704   0.139E+01    0.315E+01
DAV:  10    -0.276840225038E+03    0.59626E+00   -0.21510E+00  3536   0.250E+00    0.308E+01
DAV:  11    -0.268260928560E+03    0.85793E+01   -0.14941E+01  3244   0.127E+01    0.186E+01
DAV:  12    -0.262712091110E+03    0.55488E+01   -0.19042E+01  3448   0.147E+01    0.680E+00
DAV:  13    -0.262941532966E+03   -0.22944E+00   -0.98955E-01  3352   0.326E+00    0.596E+00
DAV:  14    -0.262728407919E+03    0.21313E+00   -0.28519E-01  3432   0.162E+00    0.413E+00
DAV:  15    -0.262541558183E+03    0.18685E+00   -0.60090E-01  2544   0.315E+00    0.304E+00
DAV:  16    -0.262492708885E+03    0.48849E-01   -0.13525E-01  3504   0.883E-01    0.208E+00
DAV:  17    -0.262464824182E+03    0.27885E-01   -0.53635E-02  3320   0.621E-01    0.113E+00
DAV:  18    -0.262452648300E+03    0.12176E-01   -0.47154E-02  3280   0.605E-01    0.380E-01
DAV:  19    -0.262453416807E+03   -0.76851E-03   -0.18300E-02  2904   0.446E-01    0.285E-01
DAV:  20    -0.262454585099E+03   -0.11683E-02   -0.31742E-03  3392   0.164E-01    0.289E-01
DAV:  21    -0.262456601888E+03   -0.20168E-02   -0.52557E-03  3168   0.200E-01    0.166E-01
DAV:  22    -0.262457715245E+03   -0.11134E-02   -0.33190E-03  3128   0.204E-01    0.707E-02
DAV:  23    -0.262458280649E+03   -0.56540E-03   -0.55745E-04  3176   0.745E-02    0.624E-02
DAV:  24    -0.262458754371E+03   -0.47372E-03   -0.47916E-04  3184   0.612E-02    0.208E-02
DAV:  25    -0.262458809177E+03   -0.54806E-04   -0.52304E-05  2968   0.241E-02    0.293E-02
DAV:  26    -0.262458826627E+03   -0.17450E-04   -0.38827E-05  2800   0.174E-02    0.775E-03
DAV:  27    -0.262458835354E+03   -0.87263E-05   -0.26060E-06  1616   0.520E-03    0.541E-03
DAV:  28    -0.262458836076E+03   -0.72209E-06   -0.19723E-06  1532   0.561E-03
   1 F= -.26245884E+03 E0= -.26240638E+03  d E =-.104911E+00
 running on   16 total cores
 distrk:  each k-point on    8 cores,    2 groups
 distr:  one band on    4 cores,    2 groups
 using from now: INCAR     
 vasp.5.4.4.18Apr17-6-g9f103f2a35 (build Nov 27 2019 20:08:17) complex          
  
 POSCAR found type information on POSCAR  Ti
 POSCAR found :  1 types and      68 ions
 scaLAPACK will be used

 ----------------------------------------------------------------------------- 
|                                                                             |
|           W    W    AA    RRRRR   N    N  II  N    N   GGGG   !!!           |
|           W    W   A  A   R    R  NN   N  II  NN   N  G    G  !!!           |
|           W    W  A    A  R    R  N N  N  II  N N  N  G       !!!           |
|           W WW W  AAAAAA  RRRRR   N  N N  II  N  N N  G  GGG   !            |
|           WW  WW  A    A  R   R   N   NN  II  N   NN  G    G                |
|           W    W  A    A  R    R  N    N  II  N    N   GGGG   !!!           |
|                                                                             |
|      You have enabled k-point parallelism (KPAR>1).                         |
|      This developmental code was originally  written by Paul Kent at ORNL,  |
|      and carefully double checked in Vienna.                                |
|      GW as well as linear response parallelism added by Martijn Marsman     |
|      and Georg Kresse.                                                      |
|      Carefully verify results versus KPAR=1.                                |
|      Report problems to Paul Kent and Vienna.                               |
|                                                                             |
 ----------------------------------------------------------------------------- 

 LDA part: xc-table for Pade appr. of Perdew
 POSCAR found type information on POSCAR  Ti
 POSCAR found :  1 types and      68 ions
 POSCAR, INCAR and KPOINTS ok, starting setup
 FFT: planning ...
 WAVECAR not read
 WARNING: random wavefunctions but no delay for mixing, default for NELMDL
 entering main loop
       N       E                     dE             d eps       ncg     rms          rms(c)
DAV:   1     0.114735586599E+04    0.11474E+04   -0.77804E+04  4128   0.122E+03
DAV:   2    -0.365941044361E+03   -0.15133E+04   -0.14672E+04  4128   0.273E+02
DAV:   3    -0.596464303222E+03   -0.23052E+03   -0.21441E+03  6152   0.961E+01
DAV:   4    -0.614961685910E+03   -0.18497E+02   -0.17494E+02  6112   0.286E+01
DAV:   5    -0.615666427695E+03   -0.70474E+00   -0.68321E+00  5992   0.445E+00    0.107E+02
DAV:   6    -0.192906918413E+04   -0.13134E+04   -0.14179E+04  8088   0.195E+02    0.131E+02
DAV:   7    -0.682294879298E+03    0.12468E+04   -0.92818E+03  7712   0.142E+02    0.105E+02
DAV:   8    -0.522759635854E+03    0.15954E+03   -0.38422E+03  6628   0.177E+02    0.404E+01
DAV:   9    -0.577477012847E+03   -0.54717E+02   -0.10808E+03  7576   0.726E+01    0.522E+01
DAV:  10    -0.545718074012E+03    0.31759E+02   -0.34787E+02  6984   0.467E+01    0.412E+01
DAV:  11    -0.531368344846E+03    0.14350E+02   -0.64643E+01  6920   0.199E+01    0.341E+01
DAV:  12    -0.524712234586E+03    0.66561E+01   -0.19734E+01  6784   0.917E+00    0.289E+01
DAV:  13    -0.516901682521E+03    0.78106E+01   -0.40869E+01  6664   0.151E+01    0.194E+01
DAV:  14    -0.516621564040E+03    0.28012E+00   -0.24682E+01  6944   0.131E+01    0.183E+01
DAV:  15    -0.515361794549E+03    0.12598E+01   -0.29351E+00  6264   0.447E+00    0.160E+01
DAV:  16    -0.514162016159E+03    0.11998E+01   -0.69584E-01  6376   0.198E+00    0.142E+01
DAV:  17    -0.512572177613E+03    0.15898E+01   -0.30701E+00  6480   0.415E+00    0.117E+01
DAV:  18    -0.511216122031E+03    0.13561E+01   -0.32691E+00  6392   0.428E+00    0.877E+00
DAV:  19    -0.510261295417E+03    0.95483E+00   -0.18058E+00  6600   0.310E+00    0.594E+00
DAV:  20    -0.509722850318E+03    0.53845E+00   -0.10680E+00  6648   0.244E+00    0.359E+00
DAV:  21    -0.509561390772E+03    0.16146E+00   -0.12752E+00  6512   0.277E+00    0.240E+00
DAV:  22    -0.509576614444E+03   -0.15224E-01   -0.52603E-01  6344   0.185E+00    0.233E+00
DAV:  23    -0.509506476096E+03    0.70138E-01   -0.22033E-01  6368   0.115E+00    0.144E+00
DAV:  24    -0.509469711489E+03    0.36765E-01   -0.17764E-01  6600   0.886E-01    0.594E-01
DAV:  25    -0.509467365997E+03    0.23455E-02   -0.45090E-02  6336   0.517E-01    0.499E-01
DAV:  26    -0.509465514169E+03    0.18518E-02   -0.16544E-02  6408   0.279E-01    0.373E-01
DAV:  27    -0.509465501030E+03    0.13139E-04   -0.72238E-03  6480   0.184E-01    0.311E-01
DAV:  28    -0.509465369456E+03    0.13157E-03   -0.52715E-03  6280   0.170E-01    0.212E-01
DAV:  29    -0.509464999870E+03    0.36959E-03   -0.55416E-03  6608   0.182E-01    0.178E-01
DAV:  30    -0.509464732378E+03    0.26749E-03   -0.19449E-03  6448   0.116E-01    0.971E-02
DAV:  31    -0.509464711276E+03    0.21102E-04   -0.32025E-04  6168   0.462E-02    0.959E-02
DAV:  32    -0.509464666688E+03    0.44588E-04   -0.11977E-04  6288   0.281E-02    0.656E-02
DAV:  33    -0.509464647015E+03    0.19674E-04   -0.15052E-04  6376   0.292E-02    0.464E-02
DAV:  34    -0.509464640966E+03    0.60485E-05   -0.12184E-04  6312   0.243E-02    0.349E-02
DAV:  35    -0.509464631967E+03    0.89991E-05   -0.29907E-05  4424   0.146E-02    0.223E-02
DAV:  36    -0.509464627089E+03    0.48784E-05   -0.36681E-05  5144   0.153E-02
   1 F= -.50946463E+03 E0= -.50938463E+03  d E =-.159988E+00
Distance=3.000
 running on   16 total cores
 distrk:  each k-point on    8 cores,    2 groups
 distr:  one band on    4 cores,    2 groups
 using from now: INCAR     
 vasp.5.4.4.18Apr17-6-g9f103f2a35 (build Nov 27 2019 20:08:17) complex          
  
 POSCAR found type information on POSCAR  Ti
 POSCAR found :  1 types and      32 ions
 scaLAPACK will be used

 ----------------------------------------------------------------------------- 
|                                                                             |
|           W    W    AA    RRRRR   N    N  II  N    N   GGGG   !!!           |
|           W    W   A  A   R    R  NN   N  II  NN   N  G    G  !!!           |
|           W    W  A    A  R    R  N N  N  II  N N  N  G       !!!           |
|           W WW W  AAAAAA  RRRRR   N  N N  II  N  N N  G  GGG   !            |
|           WW  WW  A    A  R   R   N   NN  II  N   NN  G    G                |
|           W    W  A    A  R    R  N    N  II  N    N   GGGG   !!!           |
|                                                                             |
|      You have enabled k-point parallelism (KPAR>1).                         |
|      This developmental code was originally  written by Paul Kent at ORNL,  |
|      and carefully double checked in Vienna.                                |
|      GW as well as linear response parallelism added by Martijn Marsman     |
|      and Georg Kresse.                                                      |
|      Carefully verify results versus KPAR=1.                                |
|      Report problems to Paul Kent and Vienna.                               |
|                                                                             |
 ----------------------------------------------------------------------------- 

 LDA part: xc-table for Pade appr. of Perdew
 POSCAR found type information on POSCAR  Ti
 POSCAR found :  1 types and      32 ions
 POSCAR, INCAR and KPOINTS ok, starting setup
 FFT: planning ...
 WAVECAR not read
 entering main loop
       N       E                     dE             d eps       ncg     rms          rms(c)
DAV:   1     0.599294991507E+03    0.59929E+03   -0.35750E+04  1968   0.107E+03
DAV:   2    -0.165243878809E+03   -0.76454E+03   -0.73569E+03  1968   0.239E+02
DAV:   3    -0.276923029554E+03   -0.11168E+03   -0.10539E+03  3080   0.823E+01
DAV:   4    -0.286501789214E+03   -0.95788E+01   -0.88576E+01  3096   0.263E+01
DAV:   5    -0.287109319729E+03   -0.60753E+00   -0.57730E+00  3152   0.562E+00    0.669E+01
DAV:   6    -0.414582993968E+03   -0.12747E+03   -0.22126E+03  3688   0.945E+01    0.830E+01
DAV:   7    -0.253518482647E+03    0.16106E+03   -0.26295E+03  3440   0.158E+02    0.297E+01
DAV:   8    -0.249502777831E+03    0.40157E+01   -0.41994E+02  3012   0.629E+01    0.300E+01
DAV:   9    -0.236927058839E+03    0.12576E+02   -0.82896E+01  3116   0.267E+01    0.203E+01
DAV:  10    -0.236534080697E+03    0.39298E+00   -0.87001E+00  3272   0.673E+00    0.188E+01
DAV:  11    -0.237265530067E+03   -0.73145E+00   -0.37186E+00  3232   0.444E+00    0.198E+01
DAV:  12    -0.233550508673E+03    0.37150E+01   -0.83866E+00  3080   0.104E+01    0.130E+01
DAV:  13    -0.230923145840E+03    0.26274E+01   -0.57450E+00  2924   0.867E+00    0.771E+00
DAV:  14    -0.230444462440E+03    0.47868E+00   -0.21316E+00  3240   0.378E+00    0.597E+00
DAV:  15    -0.230223144936E+03    0.22132E+00   -0.11484E+00  2800   0.390E+00    0.476E+00
DAV:  16    -0.230033788981E+03    0.18936E+00   -0.17813E+00  3136   0.348E+00    0.150E+00
DAV:  17    -0.230022801392E+03    0.10988E-01   -0.13059E-01  3000   0.984E-01    0.891E-01
DAV:  18    -0.230010149991E+03    0.12651E-01   -0.12926E-01  3168   0.872E-01    0.435E-01
DAV:  19    -0.230009258190E+03    0.89180E-03   -0.20225E-02  2984   0.446E-01    0.157E-01
DAV:  20    -0.230009371959E+03   -0.11377E-03   -0.40428E-03  3200   0.194E-01    0.776E-02
DAV:  21    -0.230008537088E+03    0.83487E-03   -0.18743E-03  2944   0.113E-01    0.746E-02
DAV:  22    -0.230008782178E+03   -0.24509E-03   -0.30279E-04  3088   0.445E-02    0.507E-02
[...]
DAV:  45    -0.492495884859E+03   -0.15515E-04   -0.11028E-04  6208   0.209E-02    0.827E-02
DAV:  46    -0.492496028593E+03   -0.14373E-03   -0.22630E-04  6432   0.290E-02    0.135E-01
DAV:  47    -0.492495814326E+03    0.21427E-03   -0.26802E-04  6496   0.255E-02    0.415E-02
DAV:  48    -0.492495815457E+03   -0.11306E-05   -0.13416E-04  6416   0.209E-02    0.442E-02
DAV:  49    -0.492495796083E+03    0.19374E-04   -0.16356E-05  3984   0.872E-03    0.201E-02
DAV:  50    -0.492495793483E+03    0.26004E-05   -0.38357E-06  2640   0.463E-03
   1 F= -.49249579E+03 E0= -.49238538E+03  d E =-.220819E+00
Distance=10.000
 running on   16 total cores
 distrk:  each k-point on    8 cores,    2 groups
 distr:  one band on    4 cores,    2 groups
 using from now: INCAR     
 vasp.5.4.4.18Apr17-6-g9f103f2a35 (build Nov 27 2019 20:08:17) complex          
  
 POSCAR found type information on POSCAR  Ti
 POSCAR found :  1 types and      32 ions
 scaLAPACK will be used

 ----------------------------------------------------------------------------- 
|                                                                             |
|           W    W    AA    RRRRR   N    N  II  N    N   GGGG   !!!           |
|           W    W   A  A   R    R  NN   N  II  NN   N  G    G  !!!           |
|           W    W  A    A  R    R  N N  N  II  N N  N  G       !!!           |
|           W WW W  AAAAAA  RRRRR   N  N N  II  N  N N  G  GGG   !            |
|           WW  WW  A    A  R   R   N   NN  II  N   NN  G    G                |
|           W    W  A    A  R    R  N    N  II  N    N   GGGG   !!!           |
|                                                                             |
|      You have enabled k-point parallelism (KPAR>1).                         |
|      This developmental code was originally  written by Paul Kent at ORNL,  |
|      and carefully double checked in Vienna.                                |
|      GW as well as linear response parallelism added by Martijn Marsman     |
|      and Georg Kresse.                                                      |
|      Carefully verify results versus KPAR=1.                                |
|      Report problems to Paul Kent and Vienna.                               |
|                                                                             |
 ----------------------------------------------------------------------------- 

 LDA part: xc-table for Pade appr. of Perdew
 POSCAR found type information on POSCAR  Ti
 POSCAR found :  1 types and      32 ions
 POSCAR, INCAR and KPOINTS ok, starting setup
 FFT: planning ...
 WAVECAR not read
 entering main loop
       N       E                     dE             d eps       ncg     rms          rms(c)
DAV:   1     0.607770373475E+03    0.60777E+03   -0.33699E+04  1968   0.991E+02
DAV:   2    -0.174876750688E+03   -0.78265E+03   -0.74845E+03  2064   0.230E+02
DAV:   3    -0.278216128775E+03   -0.10334E+03   -0.98038E+02  3128   0.784E+01
DAV:   4    -0.286552931935E+03   -0.83368E+01   -0.77098E+01  3088   0.244E+01
DAV:   5    -0.287118969436E+03   -0.56604E+00   -0.54128E+00  3184   0.540E+00    0.670E+01
DAV:   6    -0.420647435828E+03   -0.13353E+03   -0.22896E+03  3680   0.956E+01    0.838E+01
DAV:   7    -0.273201473927E+03    0.14745E+03   -0.33379E+03  3496   0.175E+02    0.335E+01
DAV:   8    -0.242962001681E+03    0.30239E+02   -0.37576E+02  2942   0.662E+01    0.277E+01
DAV:   9    -0.242595432120E+03    0.36657E+00   -0.34543E+01  3296   0.146E+01    0.257E+01
DAV:  10    -0.238820652208E+03    0.37748E+01   -0.17350E+01  3142   0.114E+01    0.212E+01
DAV:  11    -0.240466747454E+03   -0.16461E+01   -0.16104E+00  3344   0.339E+00    0.228E+01
DAV:  12    -0.233034933162E+03    0.74318E+01   -0.19807E+01  3046   0.143E+01    0.128E+01
DAV:  13    -0.231530291702E+03    0.15046E+01   -0.29941E+00  3200   0.501E+00    0.881E+00
DAV:  14    -0.231025292109E+03    0.50500E+00   -0.45703E-01  3344   0.201E+00    0.729E+00
DAV:  15    -0.230047227425E+03    0.97806E+00   -0.42371E+00  3112   0.662E+00    0.242E+00
DAV:  16    -0.230075051055E+03   -0.27824E-01   -0.96772E-01  3144   0.259E+00    0.249E+00
DAV:  17    -0.230000203180E+03    0.74848E-01   -0.42909E-01  3054   0.190E+00    0.982E-01
DAV:  18    -0.230008210028E+03   -0.80068E-02   -0.67679E-02  3416   0.780E-01    0.801E-01
DAV:  19    -0.230005565402E+03    0.26446E-02   -0.23394E-02  3096   0.399E-01    0.397E-01
DAV:  20    -0.230005323406E+03    0.24200E-03   -0.74437E-03  3256   0.187E-01    0.149E-01
DAV:  21    -0.230006907245E+03   -0.15838E-02   -0.20062E-03  3192   0.101E-01    0.931E-02
DAV:  22    -0.230007579902E+03   -0.67266E-03   -0.51889E-04  3344   0.561E-02    0.978E-02
DAV:  23    -0.230008054968E+03   -0.47507E-03   -0.48286E-04  2952   0.619E-02    0.816E-02
DAV:  24    -0.230008255400E+03   -0.20043E-03   -0.37922E-04  3176   0.422E-02    0.427E-02
DAV:  25    -0.230008381583E+03   -0.12618E-03   -0.11271E-04  3032   0.288E-02    0.132E-02
DAV:  26    -0.230008483547E+03   -0.10196E-03   -0.37675E-05  2520   0.130E-02    0.170E-02
DAV:  27    -0.230008535045E+03   -0.51497E-04   -0.23570E-05  2016   0.147E-02    0.914E-03
DAV:  28    -0.230008555346E+03   -0.20302E-04   -0.31687E-06  1392   0.551E-03    0.617E-03
DAV:  29    -0.230008585494E+03   -0.30148E-04   -0.55617E-06  1496   0.787E-03    0.483E-03
DAV:  30    -0.230008600639E+03   -0.15145E-04   -0.23774E-06  1360   0.485E-03    0.251E-03
DAV:  31    -0.230008607206E+03   -0.65668E-05   -0.15939E-06  1344   0.338E-03    0.268E-03
DAV:  32    -0.230008611502E+03   -0.42964E-05   -0.85758E-07  1344   0.357E-03
   1 F= -.23000861E+03 E0= -.22995079E+03  d E =-.115643E+00
 running on   16 total cores
 distrk:  each k-point on    8 cores,    2 groups
 distr:  one band on    4 cores,    2 groups
 using from now: INCAR     
 vasp.5.4.4.18Apr17-6-g9f103f2a35 (build Nov 27 2019 20:08:17) complex          
  
 POSCAR found type information on POSCAR  Ti
 POSCAR found :  1 types and      36 ions
 scaLAPACK will be used

 ----------------------------------------------------------------------------- 
|                                                                             |
|           W    W    AA    RRRRR   N    N  II  N    N   GGGG   !!!           |
|           W    W   A  A   R    R  NN   N  II  NN   N  G    G  !!!           |
|           W    W  A    A  R    R  N N  N  II  N N  N  G       !!!           |
|           W WW W  AAAAAA  RRRRR   N  N N  II  N  N N  G  GGG   !            |
|           WW  WW  A    A  R   R   N   NN  II  N   NN  G    G                |
|           W    W  A    A  R    R  N    N  II  N    N   GGGG   !!!           |
|                                                                             |
|      You have enabled k-point parallelism (KPAR>1).                         |
|      This developmental code was originally  written by Paul Kent at ORNL,  |
|      and carefully double checked in Vienna.                                |
|      GW as well as linear response parallelism added by Martijn Marsman     |
|      and Georg Kresse.                                                      |
|      Carefully verify results versus KPAR=1.                                |
|      Report problems to Paul Kent and Vienna.                               |
|                                                                             |
 ----------------------------------------------------------------------------- 

 LDA part: xc-table for Pade appr. of Perdew
 POSCAR found type information on POSCAR  Ti
 POSCAR found :  1 types and      36 ions
 POSCAR, INCAR and KPOINTS ok, starting setup
 FFT: planning ...
 WAVECAR not read
 WARNING: random wavefunctions but no delay for mixing, default for NELMDL
 entering main loop
       N       E                     dE             d eps       ncg     rms          rms(c)
DAV:   1     0.767597865816E+03    0.76760E+03   -0.39603E+04  2208   0.102E+03
DAV:   2    -0.204483725462E+03   -0.97208E+03   -0.92529E+03  2356   0.240E+02
DAV:   3    -0.326321703444E+03   -0.12184E+03   -0.11312E+03  3248   0.857E+01
DAV:   4    -0.334259030119E+03   -0.79373E+01   -0.73531E+01  3136   0.268E+01
DAV:   5    -0.334748854853E+03   -0.48982E+00   -0.47233E+00  3608   0.542E+00    0.825E+01
DAV:   6    -0.528696630667E+03   -0.19395E+03   -0.28282E+03  4168   0.947E+01    0.109E+02
DAV:   7    -0.328465642710E+03    0.20023E+03   -0.57064E+03  4104   0.187E+02    0.444E+01
DAV:   8    -0.284979316512E+03    0.43486E+02   -0.68415E+02  3156   0.942E+01    0.398E+01
DAV:   9    -0.284334177395E+03    0.64514E+00   -0.56022E+01  3640   0.210E+01    0.367E+01
DAV:  10    -0.282854095462E+03    0.14801E+01   -0.37302E+00  3512   0.445E+00    0.353E+01
DAV:  11    -0.277264823272E+03    0.55893E+01   -0.32121E+00  2924   0.633E+00    0.286E+01
DAV:  12    -0.264394989273E+03    0.12870E+02   -0.26698E+01  3296   0.173E+01    0.103E+01
DAV:  13    -0.263930254016E+03    0.46474E+00   -0.13017E+00  3416   0.363E+00    0.869E+00
DAV:  14    -0.263370208211E+03    0.56005E+00   -0.51258E-01  3508   0.210E+00    0.713E+00
DAV:  15    -0.262668857284E+03    0.70135E+00   -0.22123E+00  2668   0.573E+00    0.440E+00
DAV:  16    -0.262450764054E+03    0.21809E+00   -0.20660E+00  3468   0.359E+00    0.184E+00
DAV:  17    -0.262460020882E+03   -0.92568E-02   -0.14128E-01  3652   0.859E-01    0.140E+00
DAV:  18    -0.262449630245E+03    0.10391E-01   -0.16948E-01  3316   0.138E+00    0.543E-01
DAV:  19    -0.262460004801E+03   -0.10375E-01   -0.10259E-01  3140   0.108E+00    0.790E-01
DAV:  20    -0.262453087705E+03    0.69171E-02   -0.32608E-02  3188   0.555E-01    0.280E-01
DAV:  21    -0.262456311911E+03   -0.32242E-02   -0.27167E-02  3536   0.480E-01    0.278E-01
DAV:  22    -0.262456993751E+03   -0.68184E-03   -0.56961E-03  2792   0.242E-01    0.126E-01
DAV:  23    -0.262457608153E+03   -0.61440E-03   -0.39611E-04  3032   0.647E-02    0.115E-01
DAV:  24    -0.262457983407E+03   -0.37525E-03   -0.54117E-04  3288   0.574E-02    0.454E-02
DAV:  25    -0.262458408248E+03   -0.42484E-03   -0.68513E-04  3528   0.656E-02    0.518E-02
DAV:  26    -0.262458507092E+03   -0.98844E-04   -0.46918E-05  2816   0.259E-02    0.462E-02
DAV:  27    -0.262458584354E+03   -0.77262E-04   -0.15834E-04  3168   0.396E-02    0.134E-02
DAV:  28    -0.262458616598E+03   -0.32244E-04   -0.38308E-05  2920   0.142E-02    0.161E-02
DAV:  29    -0.262458644413E+03   -0.27814E-04   -0.12420E-05  1700   0.136E-02    0.451E-03
DAV:  30    -0.262458661304E+03   -0.16892E-04   -0.43415E-06  1460   0.450E-03    0.102E-03
DAV:  31    -0.262458673253E+03   -0.11948E-04   -0.18560E-06  1476   0.368E-03    0.246E-03
DAV:  32    -0.262458684483E+03   -0.11231E-04   -0.76220E-07  1396   0.354E-03    0.102E-03
DAV:  33    -0.262458692007E+03   -0.75238E-05   -0.27461E-07  1380   0.105E-03    0.107E-03
DAV:  34    -0.262458695230E+03   -0.32230E-05   -0.13892E-07  1316   0.822E-04
   1 F= -.26245870E+03 E0= -.26240624E+03  d E =-.104911E+00
 running on   16 total cores
 distrk:  each k-point on    8 cores,    2 groups
 distr:  one band on    4 cores,    2 groups
 using from now: INCAR     
 vasp.5.4.4.18Apr17-6-g9f103f2a35 (build Nov 27 2019 20:08:17) complex          
  
 POSCAR found type information on POSCAR  Ti
 POSCAR found :  1 types and      68 ions
 scaLAPACK will be used

 ----------------------------------------------------------------------------- 
|                                                                             |
|           W    W    AA    RRRRR   N    N  II  N    N   GGGG   !!!           |
|           W    W   A  A   R    R  NN   N  II  NN   N  G    G  !!!           |
|           W    W  A    A  R    R  N N  N  II  N N  N  G       !!!           |
|           W WW W  AAAAAA  RRRRR   N  N N  II  N  N N  G  GGG   !            |
|           WW  WW  A    A  R   R   N   NN  II  N   NN  G    G                |
|           W    W  A    A  R    R  N    N  II  N    N   GGGG   !!!           |
|                                                                             |
|      You have enabled k-point parallelism (KPAR>1).                         |
|      This developmental code was originally  written by Paul Kent at ORNL,  |
|      and carefully double checked in Vienna.                                |
|      GW as well as linear response parallelism added by Martijn Marsman     |
|      and Georg Kresse.                                                      |
|      Carefully verify results versus KPAR=1.                                |
|      Report problems to Paul Kent and Vienna.                               |
|                                                                             |
 ----------------------------------------------------------------------------- 

 LDA part: xc-table for Pade appr. of Perdew
 POSCAR found type information on POSCAR  Ti
 POSCAR found :  1 types and      68 ions
 POSCAR, INCAR and KPOINTS ok, starting setup
 FFT: planning ...
 WAVECAR not read
 WARNING: random wavefunctions but no delay for mixing, default for NELMDL
 entering main loop
       N       E                     dE             d eps       ncg     rms          rms(c)
DAV:   1     0.132711168828E+04    0.13271E+04   -0.78023E+04  4128   0.113E+03
DAV:   2    -0.354802579894E+03   -0.16819E+04   -0.16198E+04  4128   0.254E+02
DAV:   3    -0.614721498721E+03   -0.25992E+03   -0.24397E+03  6280   0.920E+01
DAV:   4    -0.634616150768E+03   -0.19895E+02   -0.18666E+02  6120   0.290E+01
DAV:   5    -0.635621988914E+03   -0.10058E+01   -0.97611E+00  6568   0.558E+00    0.109E+02
DAV:   6    -0.626353155465E+04   -0.56279E+04   -0.56250E+04  5864   0.122E+02    0.213E+02
DAV:   7    -0.609216417875E+03    0.56543E+04   -0.52423E+03  5512   0.136E+02    0.118E+02
DAV:   8    -0.169265747238E+04   -0.10834E+04   -0.31644E+04  8248   0.257E+02    0.114E+02
DAV:   9    -0.728060554415E+03    0.96460E+03   -0.11110E+04  7424   0.174E+02    0.108E+02
DAV:  10    -0.688810572116E+03    0.39250E+02   -0.41118E+03  7104   0.183E+02    0.610E+01
DAV:  11    -0.543237057840E+03    0.14557E+03   -0.58461E+02  6636   0.577E+01    0.492E+01
DAV:  12    -0.550011350993E+03   -0.67743E+01   -0.12503E+02  6656   0.228E+01    0.485E+01
DAV:  13    -0.542047348261E+03    0.79640E+01   -0.19268E+01  6624   0.119E+01    0.451E+01
DAV:  14    -0.527351305331E+03    0.14696E+02   -0.10407E+01  6312   0.740E+00    0.377E+01
DAV:  15    -0.539121772447E+03   -0.11770E+02   -0.19037E+01  6584   0.107E+01    0.419E+01
DAV:  16    -0.525070827306E+03    0.14051E+02   -0.26507E+01  6688   0.143E+01    0.373E+01
DAV:  17    -0.514288714371E+03    0.10782E+02   -0.14558E+02  6448   0.174E+01    0.334E+01
DAV:  18    -0.512631569967E+03    0.16571E+01   -0.65226E+01  6640   0.134E+01    0.303E+01
DAV:  19    -0.509218109997E+03    0.34135E+01   -0.97026E+00  6912   0.366E+00    0.282E+01
DAV:  20    -0.497707941786E+03    0.11510E+02   -0.13237E+01  6672   0.384E+00    0.158E+01
DAV:  21    -0.495928806825E+03    0.17791E+01   -0.23639E+00  6328   0.309E+00    0.139E+01
DAV:  22    -0.496300032929E+03   -0.37123E+00   -0.21099E+00  6416   0.273E+00    0.155E+01
DAV:  23    -0.494931293749E+03    0.13687E+01   -0.67644E+00  6480   0.380E+00    0.121E+01
DAV:  24    -0.493457562581E+03    0.14737E+01   -0.64147E+00  6504   0.438E+00    0.810E+00
DAV:  25    -0.493328778888E+03    0.12878E+00   -0.28658E+00  6576   0.222E+00    0.787E+00
DAV:  26    -0.493119102110E+03    0.20968E+00   -0.23659E+00  6368   0.212E+00    0.622E+00
DAV:  27    -0.493047177232E+03    0.71925E-01   -0.99674E-01  6568   0.101E+00    0.567E+00
DAV:  28    -0.493028005183E+03    0.19172E-01   -0.15859E+00  6272   0.162E+00    0.536E+00
DAV:  29    -0.492815749971E+03    0.21226E+00   -0.37072E-01  6368   0.141E+00    0.415E+00
DAV:  30    -0.492708570342E+03    0.10718E+00   -0.51457E-01  6328   0.121E+00    0.337E+00
DAV:  31    -0.492704872120E+03    0.36982E-02   -0.10521E-01  6464   0.699E-01    0.336E+00
DAV:  32    -0.492617776413E+03    0.87096E-01   -0.92762E-02  6192   0.616E-01    0.267E+00
DAV:  33    -0.492609510915E+03    0.82655E-02   -0.11029E-01  6304   0.754E-01    0.277E+00
DAV:  34    -0.492562060411E+03    0.47451E-01   -0.11749E-01  6528   0.677E-01    0.206E+00
DAV:  35    -0.492520108552E+03    0.41952E-01   -0.76983E-02  6504   0.504E-01    0.135E+00
DAV:  36    -0.492529105015E+03   -0.89965E-02   -0.92186E-02  6336   0.635E-01    0.178E+00
DAV:  37    -0.492508643789E+03    0.20461E-01   -0.42450E-02  6536   0.334E-01    0.123E+00
DAV:  38    -0.492497384048E+03    0.11260E-01   -0.25951E-02  6400   0.207E-01    0.734E-01
DAV:  39    -0.492492164487E+03    0.52196E-02   -0.17010E-02  6392   0.216E-01    0.347E-01
DAV:  40    -0.492492750442E+03   -0.58596E-03   -0.27458E-03  6616   0.119E-01    0.327E-01
DAV:  41    -0.492493268403E+03   -0.51796E-03   -0.16540E-03  6320   0.862E-02    0.310E-01
DAV:  42    -0.492492881512E+03    0.38689E-03   -0.44254E-03  6544   0.118E-01    0.284E-01
DAV:  43    -0.492492249318E+03    0.63219E-03   -0.13715E-03  6768   0.769E-02    0.164E-01
DAV:  44    -0.492492108316E+03    0.14100E-03   -0.53957E-04  6432   0.487E-02    0.969E-02
DAV:  45    -0.492492165588E+03   -0.57273E-04   -0.14190E-04  6168   0.281E-02    0.803E-02
DAV:  46    -0.492492168869E+03   -0.32807E-05   -0.84071E-05  6336   0.211E-02    0.583E-02
DAV:  47    -0.492492173705E+03   -0.48358E-05   -0.74214E-05  6192   0.198E-02    0.518E-02
DAV:  48    -0.492492168323E+03    0.53820E-05   -0.74620E-05  6000   0.205E-02    0.352E-02
DAV:  49    -0.492492195878E+03   -0.27555E-04   -0.67543E-05  5904   0.212E-02    0.480E-02
DAV:  50    -0.492492169801E+03    0.26077E-04   -0.99004E-06  3280   0.805E-03    0.246E-02
DAV:  51    -0.492492172430E+03   -0.26284E-05   -0.45956E-05  5928   0.134E-02
   1 F= -.49249217E+03 E0= -.49238187E+03  d E =-.220609E+00

DISTANCE=0.500
E_alpha= -230.012083  E_beta= -262.462216  E_total=  -68.089295 
W_seq=424.385004

DISTANCE=1.000
E_alpha= -230.009995  E_beta= -262.459876  E_total= -435.530154 
W_seq=56.939717

DISTANCE=1.500
E_alpha= -230.010253  E_beta= -262.460241  E_total= -503.683048 
W_seq=-11.212554

DISTANCE=2.000
E_alpha= -230.008957  E_beta= -262.458870  E_total= -511.688293 
W_seq=-19.220466

DISTANCE=2.500
E_alpha= -230.008989  E_beta= -262.458836  E_total= -509.464627 
W_seq=-16.996802

DISTANCE=3.000
E_alpha= -230.009971  E_beta= -262.460010  E_total= -505.539339 
W_seq=-13.069358

DISTANCE=3.500
E_alpha= -230.008706  E_beta= -262.458781  E_total= -501.514538 
W_seq=-9.047051

DISTANCE=4.000
E_alpha= -230.008707  E_beta= -262.458733  E_total= -498.289930 
W_seq=-5.822490

DISTANCE=4.500
E_alpha= -230.008851  E_beta= -262.458738  E_total= -496.003678 
W_seq=-3.536089

DISTANCE=5.000
E_alpha= -230.008776  E_beta= -262.458741  E_total= -494.499340 
W_seq=-2.031823

DISTANCE=5.500
E_alpha= -230.008875  E_beta= -262.458901  E_total= -493.567991 
W_seq=-1.100215

DISTANCE=6.000
E_alpha= -230.008875  E_beta= -262.458735  E_total= -493.028783 
W_seq=-0.561173

DISTANCE=6.500
E_alpha= -230.009344  E_beta= -262.459343  E_total= -492.745684 
W_seq=-0.276997

DISTANCE=7.000
E_alpha= -230.008826  E_beta= -262.458851  E_total= -492.609826 
W_seq=-0.142149

DISTANCE=7.500
E_alpha= -230.009834  E_beta= -262.459816  E_total= -492.551682 
W_seq=-0.082032

DISTANCE=8.000
E_alpha= -230.008584  E_beta= -262.458451  E_total= -492.521322 
W_seq=-0.054287

DISTANCE=8.500
E_alpha= -230.008736  E_beta= -262.458570  E_total= -492.507788 
W_seq=-0.040482

DISTANCE=9.000
E_alpha= -230.008652  E_beta= -262.458507  E_total= -492.499982 
W_seq=-0.032823

DISTANCE=9.500
E_alpha= -230.008887  E_beta= -262.458810  E_total= -492.495793 
W_seq=-0.028096

DISTANCE=10.000
E_alpha= -230.008612  E_beta= -262.458695  E_total= -492.492172 
W_seq=-0.024865

