Distance=0.500
 running on   16 total cores
 distrk:  each k-point on    8 cores,    2 groups
 distr:  one band on    4 cores,    2 groups
 using from now: INCAR     
 vasp.5.4.4.18Apr17-6-g9f103f2a35 (build Nov 27 2019 20:08:17) complex          
  
 POSCAR found type information on POSCAR  Ti
 POSCAR found :  1 types and      54 ions
 scaLAPACK will be used

 ----------------------------------------------------------------------------- 
|                                                                             |
|           W    W    AA    RRRRR   N    N  II  N    N   GGGG   !!!           |
|           W    W   A  A   R    R  NN   N  II  NN   N  G    G  !!!           |
|           W    W  A    A  R    R  N N  N  II  N N  N  G       !!!           |
|           W WW W  AAAAAA  RRRRR   N  N N  II  N  N N  G  GGG   !            |
|           WW  WW  A    A  R   R   N   NN  II  N   NN  G    G                |
|           W    W  A    A  R    R  N    N  II  N    N   GGGG   !!!           |
|                                                                             |
|      You have enabled k-point parallelism (KPAR>1).                         |
|      This developmental code was originally  written by Paul Kent at ORNL,  |
|      and carefully double checked in Vienna.                                |
|      GW as well as linear response parallelism added by Martijn Marsman     |
|      and Georg Kresse.                                                      |
|      Carefully verify results versus KPAR=1.                                |
|      Report problems to Paul Kent and Vienna.                               |
|                                                                             |
 ----------------------------------------------------------------------------- 

 LDA part: xc-table for Pade appr. of Perdew
 POSCAR found type information on POSCAR  Ti
 POSCAR found :  1 types and      54 ions
 POSCAR, INCAR and KPOINTS ok, starting setup
 FFT: planning ...
 WAVECAR not read
 entering main loop
       N       E                     dE             d eps       ncg     rms          rms(c)
DAV:   1     0.956175291221E+03    0.95618E+03   -0.62016E+04  1904   0.117E+03
DAV:   2    -0.284535378230E+03   -0.12407E+04   -0.12040E+04  1904   0.259E+02
DAV:   3    -0.469680255363E+03   -0.18514E+03   -0.17610E+03  2952   0.897E+01
DAV:   4    -0.485335578248E+03   -0.15655E+02   -0.14867E+02  3016   0.267E+01
DAV:   5    -0.486227975331E+03   -0.89240E+00   -0.85020E+00  3064   0.493E+00    0.859E+01
DAV:   6    -0.949400975798E+03   -0.46317E+03   -0.55900E+03  3760   0.110E+02    0.129E+02
DAV:   7    -0.418162554529E+03    0.53124E+03   -0.66202E+03  3448   0.155E+02    0.446E+01
DAV:   8    -0.407117511200E+03    0.11045E+02   -0.99547E+02  3096   0.862E+01    0.311E+01
DAV:   9    -0.414883454011E+03   -0.77659E+01   -0.17127E+02  3128   0.251E+01    0.283E+01
DAV:  10    -0.417813123285E+03   -0.29297E+01   -0.13811E+01  3112   0.651E+00    0.309E+01
DAV:  11    -0.417428980961E+03    0.38414E+00   -0.10907E+00  3120   0.139E+00    0.305E+01
DAV:  12    -0.409730640992E+03    0.76983E+01   -0.57388E+00  2456   0.770E+00    0.223E+01
DAV:  13    -0.400491207861E+03    0.92394E+01   -0.31897E+01  2504   0.177E+01    0.711E+00
DAV:  14    -0.400563808877E+03   -0.72601E-01   -0.23531E+00  2848   0.459E+00    0.700E+00
DAV:  15    -0.400650871362E+03   -0.87062E-01   -0.13288E-01  3000   0.810E-01    0.692E+00
DAV:  16    -0.400886645478E+03   -0.23577E+00   -0.96246E-01  3088   0.219E+00    0.456E+00
DAV:  17    -0.400440314083E+03    0.44633E+00   -0.11493E+00  2624   0.310E+00    0.336E+00
DAV:  18    -0.400300744350E+03    0.13957E+00   -0.44247E-01  2944   0.151E+00    0.209E+00
DAV:  19    -0.400276590264E+03    0.24154E-01   -0.47551E-02  2776   0.545E-01    0.163E+00
DAV:  20    -0.400249112573E+03    0.27478E-01   -0.60169E-02  3112   0.479E-01    0.996E-01
DAV:  21    -0.400243709301E+03    0.54033E-02   -0.40103E-02  2736   0.445E-01    0.435E-01
DAV:  22    -0.400244613714E+03   -0.90441E-03   -0.13966E-02  2384   0.345E-01    0.356E-01
DAV:  23    -0.400245622246E+03   -0.10085E-02   -0.71830E-03  2808   0.208E-01    0.118E-01
DAV:  24    -0.400245699851E+03   -0.77605E-04   -0.17644E-03  2816   0.101E-01    0.453E-02
DAV:  25    -0.400245804649E+03   -0.10480E-03   -0.27593E-04  2896   0.327E-02    0.420E-02
DAV:  26    -0.400245823321E+03   -0.18672E-04   -0.68883E-05  2608   0.177E-02    0.257E-02
DAV:  27    -0.400245818233E+03    0.50883E-05   -0.32167E-05  2096   0.165E-02    0.111E-02
DAV:  28    -0.400245817190E+03    0.10431E-05   -0.66800E-06  1496   0.748E-03
   1 F= -.40024582E+03 E0= -.40019138E+03  d E =-.108874E+00
 running on   16 total cores
 distrk:  each k-point on    8 cores,    2 groups
 distr:  one band on    4 cores,    2 groups
 using from now: INCAR     
 vasp.5.4.4.18Apr17-6-g9f103f2a35 (build Nov 27 2019 20:08:17) complex          
  
 POSCAR found type information on POSCAR  Ti
 POSCAR found :  1 types and      36 ions
 scaLAPACK will be used

 ----------------------------------------------------------------------------- 
|                                                                             |
|           W    W    AA    RRRRR   N    N  II  N    N   GGGG   !!!           |
|           W    W   A  A   R    R  NN   N  II  NN   N  G    G  !!!           |
|           W    W  A    A  R    R  N N  N  II  N N  N  G       !!!           |
|           W WW W  AAAAAA  RRRRR   N  N N  II  N  N N  G  GGG   !            |
|           WW  WW  A    A  R   R   N   NN  II  N   NN  G    G                |
|           W    W  A    A  R    R  N    N  II  N    N   GGGG   !!!           |
|                                                                             |
|      You have enabled k-point parallelism (KPAR>1).                         |
|      This developmental code was originally  written by Paul Kent at ORNL,  |
|      and carefully double checked in Vienna.                                |
|      GW as well as linear response parallelism added by Martijn Marsman     |
|      and Georg Kresse.                                                      |
|      Carefully verify results versus KPAR=1.                                |
|      Report problems to Paul Kent and Vienna.                               |
|                                                                             |
 ----------------------------------------------------------------------------- 

 LDA part: xc-table for Pade appr. of Perdew
 POSCAR found type information on POSCAR  Ti
 POSCAR found :  1 types and      36 ions
 POSCAR, INCAR and KPOINTS ok, starting setup
 FFT: planning ...
 WAVECAR not read
 WARNING: random wavefunctions but no delay for mixing, default for NELMDL
 entering main loop
       N       E                     dE             d eps       ncg     rms          rms(c)
DAV:   1     0.714108069986E+03    0.71411E+03   -0.40849E+04  1288   0.109E+03
DAV:   2    -0.186843259519E+03   -0.90095E+03   -0.86517E+03  1296   0.244E+02
DAV:   3    -0.320272903380E+03   -0.13343E+03   -0.12443E+03  1952   0.876E+01
DAV:   4    -0.330642924545E+03   -0.10370E+02   -0.96706E+01  1928   0.283E+01
DAV:   5    -0.331138047643E+03   -0.49512E+00   -0.48614E+00  2008   0.566E+00    0.782E+01
DAV:   6    -0.507589824891E+03   -0.17645E+03   -0.29696E+03  2408   0.999E+01    0.100E+02
DAV:   7    -0.281436987445E+03    0.22615E+03   -0.37813E+03  2244   0.173E+02    0.329E+01
DAV:   8    -0.286819096361E+03   -0.53821E+01   -0.57879E+02  1908   0.768E+01    0.398E+01
DAV:   9    -0.267608064517E+03    0.19211E+02   -0.11371E+02  1984   0.355E+01    0.282E+01
DAV:  10    -0.264429228823E+03    0.31788E+01   -0.93593E+00  2096   0.798E+00    0.248E+01
DAV:  11    -0.262664835052E+03    0.17644E+01   -0.22306E+00  2080   0.427E+00    0.217E+01
DAV:  12    -0.260619971565E+03    0.20449E+01   -0.80810E+00  1952   0.851E+00    0.179E+01
DAV:  13    -0.256285626850E+03    0.43343E+01   -0.20592E+01  2096   0.125E+01    0.601E+00
DAV:  14    -0.256031955311E+03    0.25367E+00   -0.25746E+00  2080   0.401E+00    0.387E+00
DAV:  15    -0.256217185465E+03   -0.18523E+00   -0.10567E+00  2032   0.288E+00    0.501E+00
DAV:  16    -0.255895693640E+03    0.32149E+00   -0.16920E+00  2072   0.322E+00    0.258E+00
DAV:  17    -0.255807039342E+03    0.88654E-01   -0.75673E-01  1984   0.280E+00    0.111E+00
DAV:  18    -0.255800973357E+03    0.60660E-02   -0.13880E-01  1936   0.106E+00    0.978E-01
DAV:  19    -0.255793747976E+03    0.72254E-02   -0.10445E-01  1984   0.106E+00    0.411E-01
DAV:  20    -0.255797707893E+03   -0.39599E-02   -0.92979E-02  2016   0.772E-01    0.776E-01
DAV:  21    -0.255794431464E+03    0.32764E-02   -0.11724E-01  1936   0.947E-01    0.593E-01
DAV:  22    -0.255792089032E+03    0.23424E-02   -0.19306E-02  1952   0.396E-01    0.116E-01
DAV:  23    -0.255794948338E+03   -0.28593E-02   -0.85046E-03  1992   0.241E-01    0.285E-01
DAV:  24    -0.255795466113E+03   -0.51778E-03   -0.79840E-03  1952   0.241E-01    0.957E-02
DAV:  25    -0.255796314214E+03   -0.84810E-03   -0.68853E-04  2048   0.569E-02    0.969E-02
DAV:  26    -0.255796667844E+03   -0.35363E-03   -0.44832E-04  2040   0.615E-02    0.241E-02
DAV:  27    -0.255796795351E+03   -0.12751E-03   -0.78758E-05  1992   0.204E-02    0.996E-03
DAV:  28    -0.255796830815E+03   -0.35465E-04   -0.20667E-05  1360   0.132E-02    0.218E-02
DAV:  29    -0.255796833251E+03   -0.24356E-05   -0.93131E-06  1072   0.125E-02
   1 F= -.25579683E+03 E0= -.25572806E+03  d E =-.137544E+00
 running on   16 total cores
 distrk:  each k-point on    8 cores,    2 groups
 distr:  one band on    4 cores,    2 groups
 using from now: INCAR     
 vasp.5.4.4.18Apr17-6-g9f103f2a35 (build Nov 27 2019 20:08:17) complex          
  
 POSCAR found type information on POSCAR  Ti
 POSCAR found :  1 types and      90 ions
 scaLAPACK will be used

 ----------------------------------------------------------------------------- 
|                                                                             |
|           W    W    AA    RRRRR   N    N  II  N    N   GGGG   !!!           |
|           W    W   A  A   R    R  NN   N  II  NN   N  G    G  !!!           |
|           W    W  A    A  R    R  N N  N  II  N N  N  G       !!!           |
|           W WW W  AAAAAA  RRRRR   N  N N  II  N  N N  G  GGG   !            |
|           WW  WW  A    A  R   R   N   NN  II  N   NN  G    G                |
|           W    W  A    A  R    R  N    N  II  N    N   GGGG   !!!           |
|                                                                             |
|      You have enabled k-point parallelism (KPAR>1).                         |
|      This developmental code was originally  written by Paul Kent at ORNL,  |
|      and carefully double checked in Vienna.                                |
|      GW as well as linear response parallelism added by Martijn Marsman     |
|      and Georg Kresse.                                                      |
|      Carefully verify results versus KPAR=1.                                |
|      Report problems to Paul Kent and Vienna.                               |
|                                                                             |
 ----------------------------------------------------------------------------- 

 LDA part: xc-table for Pade appr. of Perdew
 POSCAR found type information on POSCAR  Ti
 POSCAR found :  1 types and      90 ions

 ----------------------------------------------------------------------------- 
|                                                                             |
|           W    W    AA    RRRRR   N    N  II  N    N   GGGG   !!!           |
|           W    W   A  A   R    R  NN   N  II  NN   N  G    G  !!!           |
|           W    W  A    A  R    R  N N  N  II  N N  N  G       !!!           |
|           W WW W  AAAAAA  RRRRR   N  N N  II  N  N N  G  GGG   !            |
|           WW  WW  A    A  R   R   N   NN  II  N   NN  G    G                |
|           W    W  A    A  R    R  N    N  II  N    N   GGGG   !!!           |
|                                                                             |
|      The distance between some ions is very small                           |
|      please check the nearest neigbor list in the OUTCAR file               |
|          I HOPE YOU KNOW, WHAT YOU ARE  DOING                               |
|                                                                             |
 ----------------------------------------------------------------------------- 

 POSCAR, INCAR and KPOINTS ok, starting setup
 FFT: planning ...
 WAVECAR not read
 WARNING: random wavefunctions but no delay for mixing, default for NELMDL
 entering main loop
       N       E                     dE             d eps       ncg     rms          rms(c)
DAV:   1     0.196662745622E+04    0.19666E+04   -0.10755E+05  3164   0.128E+03
DAV:   2    -0.351583681888E+03   -0.23182E+04   -0.22554E+04  3164   0.311E+02
DAV:   3    -0.661058305134E+03   -0.30947E+03   -0.29050E+03  4544   0.116E+02
DAV:   4    -0.686173519005E+03   -0.25115E+02   -0.23679E+02  4520   0.311E+01
DAV:   5    -0.687644119198E+03   -0.14706E+01   -0.14135E+01  4824   0.631E+00    0.168E+02
DAV:   6    -0.445826629477E+04   -0.37706E+04   -0.55505E+04  6318   0.532E+02    0.287E+02
DAV:   7    -0.945315377398E+03    0.35130E+04   -0.20461E+04  5582   0.265E+02    0.129E+02
DAV:   8    -0.515251220261E+03    0.43006E+03   -0.64500E+03  4588   0.227E+02    0.792E+01
DAV:   9    -0.380258858807E+03    0.13499E+03   -0.14793E+03  5552   0.744E+01    0.645E+01
DAV:  10    -0.380705634168E+03   -0.44678E+00   -0.36098E+02  5128   0.413E+01    0.709E+01
DAV:  11    -0.380604856557E+03    0.10078E+00   -0.38610E+01  4776   0.142E+01    0.726E+01
DAV:  12    -0.381007909496E+03   -0.40305E+00   -0.10564E+01  5256   0.916E+00    0.791E+01
DAV:  13    -0.418533991881E+03   -0.37526E+02   -0.10452E+02  6080   0.329E+01    0.799E+01
DAV:  14    -0.422558694460E+03   -0.40247E+01   -0.42745E+02  5192   0.496E+01    0.723E+01
DAV:  15    -0.383656547443E+03    0.38902E+02   -0.27618E+02  5384   0.419E+01    0.829E+01
DAV:  16    -0.370142882248E+03    0.13514E+02   -0.92827E+01  4944   0.233E+01    0.844E+01
DAV:  17    -0.358444944837E+03    0.11698E+02   -0.46500E+01  5272   0.173E+01    0.734E+01
DAV:  18    -0.353124281349E+03    0.53207E+01   -0.13951E+01  4768   0.941E+00    0.632E+01
DAV:  19    -0.350404822594E+03    0.27195E+01   -0.52180E+00  4896   0.537E+00    0.560E+01
DAV:  20    -0.347103332197E+03    0.33015E+01   -0.41650E+00  5120   0.458E+00    0.484E+01
DAV:  21    -0.342382460601E+03    0.47209E+01   -0.12354E+01  4952   0.713E+00    0.297E+01
DAV:  22    -0.340470706413E+03    0.19118E+01   -0.67248E+00  4592   0.651E+00    0.182E+01
DAV:  23    -0.339681944895E+03    0.78876E+00   -0.47494E+00  5184   0.528E+00    0.124E+01
DAV:  24    -0.339214218768E+03    0.46773E+00   -0.19016E+00  4840   0.341E+00    0.770E+00
DAV:  25    -0.339091610363E+03    0.12261E+00   -0.18998E+00  5136   0.320E+00    0.441E+00
DAV:  26    -0.338946379612E+03    0.14523E+00   -0.71527E-01  4680   0.191E+00    0.302E+00
DAV:  27    -0.338922194914E+03    0.24185E-01   -0.32920E-01  4912   0.133E+00    0.312E+00
DAV:  28    -0.338904612307E+03    0.17583E-01   -0.17123E-01  4712   0.977E-01    0.310E+00
DAV:  29    -0.338894242658E+03    0.10370E-01   -0.76301E-02  5120   0.677E-01    0.291E+00
DAV:  30    -0.338889777555E+03    0.44651E-02   -0.62577E-02  4888   0.539E-01    0.288E+00
DAV:  31    -0.338866896653E+03    0.22881E-01   -0.29891E-02  5256   0.394E-01    0.217E+00
DAV:  32    -0.338853967046E+03    0.12930E-01   -0.30744E-02  4960   0.396E-01    0.133E+00
DAV:  33    -0.338852126205E+03    0.18408E-02   -0.14280E-02  4728   0.310E-01    0.901E-01
DAV:  34    -0.338848997464E+03    0.31287E-02   -0.10341E-02  4656   0.242E-01    0.523E-01
DAV:  35    -0.338848066961E+03    0.93050E-03   -0.56082E-03  5152   0.190E-01    0.367E-01
DAV:  36    -0.338847456830E+03    0.61013E-03   -0.24129E-03  4624   0.106E-01    0.144E-01
DAV:  37    -0.338847408890E+03    0.47940E-04   -0.78302E-04  4568   0.767E-02    0.913E-02
DAV:  38    -0.338847357246E+03    0.51644E-04   -0.28299E-04  5168   0.350E-02    0.555E-02
DAV:  39    -0.338847358985E+03   -0.17388E-05   -0.19639E-04  5152   0.317E-02    0.567E-02
DAV:  40    -0.338847348773E+03    0.10212E-04   -0.11028E-04  4720   0.249E-02    0.310E-02
DAV:  41    -0.338847347159E+03    0.16140E-05   -0.29578E-05  3408   0.144E-02
   1 F= -.33884735E+03 E0= -.33876369E+03  d E =-.167306E+00
Distance=1.000
 running on   16 total cores
 distrk:  each k-point on    8 cores,    2 groups
 distr:  one band on    4 cores,    2 groups
 using from now: INCAR     
 vasp.5.4.4.18Apr17-6-g9f103f2a35 (build Nov 27 2019 20:08:17) complex          
  
 POSCAR found type information on POSCAR  Ti
 POSCAR found :  1 types and      54 ions
 scaLAPACK will be used

 ----------------------------------------------------------------------------- 
|                                                                             |
|           W    W    AA    RRRRR   N    N  II  N    N   GGGG   !!!           |
|           W    W   A  A   R    R  NN   N  II  NN   N  G    G  !!!           |
|           W    W  A    A  R    R  N N  N  II  N N  N  G       !!!           |
|           W WW W  AAAAAA  RRRRR   N  N N  II  N  N N  G  GGG   !            |
|           WW  WW  A    A  R   R   N   NN  II  N   NN  G    G                |
|           W    W  A    A  R    R  N    N  II  N    N   GGGG   !!!           |
|                                                                             |
|      You have enabled k-point parallelism (KPAR>1).                         |
|      This developmental code was originally  written by Paul Kent at ORNL,  |
|      and carefully double checked in Vienna.                                |
|      GW as well as linear response parallelism added by Martijn Marsman     |
|      and Georg Kresse.                                                      |
|      Carefully verify results versus KPAR=1.                                |
|      Report problems to Paul Kent and Vienna.                               |
|                                                                             |
 ----------------------------------------------------------------------------- 

 LDA part: xc-table for Pade appr. of Perdew
 POSCAR found type information on POSCAR  Ti
 POSCAR found :  1 types and      54 ions
 POSCAR, INCAR and KPOINTS ok, starting setup
 FFT: planning ...
 WAVECAR not read
 entering main loop
       N       E                     dE             d eps       ncg     rms          rms(c)
DAV:   1     0.975168243948E+03    0.97517E+03   -0.62002E+04  1904   0.117E+03
DAV:   2    -0.281701403834E+03   -0.12569E+04   -0.12192E+04  1904   0.259E+02
DAV:   3    -0.469023557995E+03   -0.18732E+03   -0.17809E+03  2984   0.891E+01
DAV:   4    -0.485240536103E+03   -0.16217E+02   -0.15377E+02  3056   0.271E+01
DAV:   5    -0.486215650214E+03   -0.97511E+00   -0.91555E+00  3024   0.517E+00    0.858E+01
DAV:   6    -0.938947279969E+03   -0.45273E+03   -0.54917E+03  3768   0.109E+02    0.129E+02
DAV:   7    -0.425324171708E+03    0.51362E+03   -0.67736E+03  3480   0.155E+02    0.459E+01
DAV:   8    -0.407580219875E+03    0.17744E+02   -0.10132E+03  3096   0.884E+01    0.318E+01
DAV:   9    -0.415118380870E+03   -0.75382E+01   -0.18053E+02  3168   0.260E+01    0.286E+01
DAV:  10    -0.417675007441E+03   -0.25566E+01   -0.16141E+01  3144   0.710E+00    0.309E+01
DAV:  11    -0.417362098704E+03    0.31291E+00   -0.13923E+00  3104   0.150E+00    0.306E+01
DAV:  12    -0.412441044787E+03    0.49211E+01   -0.40175E+00  2856   0.609E+00    0.254E+01
DAV:  13    -0.401642859383E+03    0.10798E+02   -0.21588E+01  2480   0.148E+01    0.121E+01
DAV:  14    -0.401039657210E+03    0.60320E+00   -0.44425E+00  2968   0.575E+00    0.946E+00
DAV:  15    -0.401093159371E+03   -0.53502E-01   -0.17202E-01  3008   0.914E-01    0.935E+00
DAV:  16    -0.400801770518E+03    0.29139E+00   -0.83559E-01  2552   0.254E+00    0.548E+00
DAV:  17    -0.400435866895E+03    0.36590E+00   -0.18242E+00  2984   0.300E+00    0.238E+00
DAV:  18    -0.400349053746E+03    0.86813E-01   -0.22773E-01  2752   0.119E+00    0.186E+00
DAV:  19    -0.400276029079E+03    0.73025E-01   -0.91170E-02  3088   0.500E-01    0.117E+00
DAV:  20    -0.400252026937E+03    0.24002E-01   -0.65968E-02  2840   0.669E-01    0.108E+00
DAV:  21    -0.400238941967E+03    0.13085E-01   -0.81928E-02  3008   0.536E-01    0.419E-01
DAV:  22    -0.400238619416E+03    0.32255E-03   -0.23215E-02  3208   0.343E-01    0.307E-01
DAV:  23    -0.400239885233E+03   -0.12658E-02   -0.74512E-03  2960   0.226E-01    0.202E-01
DAV:  24    -0.400240068160E+03   -0.18293E-03   -0.22171E-03  3240   0.785E-02    0.119E-01
DAV:  25    -0.400240045062E+03    0.23098E-04   -0.65608E-04  2232   0.834E-02    0.247E-02
DAV:  26    -0.400240046857E+03   -0.17945E-05   -0.10979E-04  3176   0.223E-02    0.160E-02
DAV:  27    -0.400240046372E+03    0.48477E-06   -0.17729E-05  1784   0.125E-02
   1 F= -.40024005E+03 E0= -.40018557E+03  d E =-.108950E+00
 running on   16 total cores
 distrk:  each k-point on    8 cores,    2 groups
 distr:  one band on    4 cores,    2 groups
 using from now: INCAR     
 vasp.5.4.4.18Apr17-6-g9f103f2a35 (build Nov 27 2019 20:08:17) complex          
  
 POSCAR found type information on POSCAR  Ti
 POSCAR found :  1 types and      36 ions
 scaLAPACK will be used

 ----------------------------------------------------------------------------- 
|                                                                             |
|           W    W    AA    RRRRR   N    N  II  N    N   GGGG   !!!           |
|           W    W   A  A   R    R  NN   N  II  NN   N  G    G  !!!           |
|           W    W  A    A  R    R  N N  N  II  N N  N  G       !!!           |
|           W WW W  AAAAAA  RRRRR   N  N N  II  N  N N  G  GGG   !            |
|           WW  WW  A    A  R   R   N   NN  II  N   NN  G    G                |
|           W    W  A    A  R    R  N    N  II  N    N   GGGG   !!!           |
|                                                                             |
|      You have enabled k-point parallelism (KPAR>1).                         |
|      This developmental code was originally  written by Paul Kent at ORNL,  |
|      and carefully double checked in Vienna.                                |
|      GW as well as linear response parallelism added by Martijn Marsman     |
|      and Georg Kresse.                                                      |
|      Carefully verify results versus KPAR=1.                                |
|      Report problems to Paul Kent and Vienna.                               |
|                                                                             |
 ----------------------------------------------------------------------------- 

 LDA part: xc-table for Pade appr. of Perdew
 POSCAR found type information on POSCAR  Ti
 POSCAR found :  1 types and      36 ions
 POSCAR, INCAR and KPOINTS ok, starting setup
 FFT: planning ...
 WAVECAR not read
 WARNING: random wavefunctions but no delay for mixing, default for NELMDL
 entering main loop
       N       E                     dE             d eps       ncg     rms          rms(c)
DAV:   1     0.727191371149E+03    0.72719E+03   -0.40866E+04  1288   0.108E+03
DAV:   2    -0.185493149406E+03   -0.91268E+03   -0.87671E+03  1288   0.244E+02
DAV:   3    -0.320427529356E+03   -0.13493E+03   -0.12697E+03  1968   0.870E+01
DAV:   4    -0.330649253263E+03   -0.10222E+02   -0.94934E+01  1936   0.283E+01
DAV:   5    -0.331139744572E+03   -0.49049E+00   -0.48024E+00  2008   0.568E+00    0.782E+01
DAV:   6    -0.502909362142E+03   -0.17177E+03   -0.29184E+03  2424   0.991E+01    0.999E+01
DAV:   7    -0.283643234697E+03    0.21927E+03   -0.38440E+03  2244   0.174E+02    0.336E+01
DAV:   8    -0.285794413316E+03   -0.21512E+01   -0.57718E+02  1888   0.776E+01    0.389E+01
DAV:   9    -0.268128221750E+03    0.17666E+02   -0.97491E+01  2028   0.326E+01    0.286E+01
DAV:  10    -0.265906128998E+03    0.22221E+01   -0.71282E+00  2040   0.715E+00    0.264E+01
DAV:  11    -0.264298024141E+03    0.16081E+01   -0.13173E+00  2120   0.324E+00    0.239E+01
DAV:  12    -0.261578614317E+03    0.27194E+01   -0.74391E+00  1952   0.826E+00    0.197E+01
DAV:  13    -0.256295312557E+03    0.52833E+01   -0.24812E+01  2104   0.140E+01    0.650E+00
DAV:  14    -0.256050333910E+03    0.24498E+00   -0.25953E+00  2112   0.402E+00    0.434E+00
DAV:  15    -0.256241710566E+03   -0.19138E+00   -0.98500E-01  2040   0.274E+00    0.532E+00
DAV:  16    -0.255912387072E+03    0.32932E+00   -0.24787E+00  2088   0.389E+00    0.289E+00
DAV:  17    -0.255796978501E+03    0.11541E+00   -0.66525E-01  2024   0.262E+00    0.997E-01
DAV:  18    -0.255799941441E+03   -0.29629E-02   -0.16316E-01  1968   0.123E+00    0.993E-01
DAV:  19    -0.255816088481E+03   -0.16147E-01   -0.30339E-01  1948   0.168E+00    0.133E+00
DAV:  20    -0.255804047889E+03    0.12041E-01   -0.22295E-01  1992   0.125E+00    0.791E-01
DAV:  21    -0.255793795854E+03    0.10252E-01   -0.44865E-02  1952   0.684E-01    0.265E-01
DAV:  22    -0.255793640930E+03    0.15492E-03   -0.46088E-03  2064   0.179E-01    0.196E-01
DAV:  23    -0.255795136193E+03   -0.14953E-02   -0.84525E-03  2040   0.272E-01    0.227E-01
DAV:  24    -0.255795378574E+03   -0.24238E-03   -0.28997E-03  1944   0.147E-01    0.491E-02
DAV:  25    -0.255796219426E+03   -0.84085E-03   -0.92843E-04  2184   0.665E-02    0.962E-02
DAV:  26    -0.255796827657E+03   -0.60823E-03   -0.63604E-04  2072   0.652E-02    0.342E-02
DAV:  27    -0.255797127035E+03   -0.29938E-03   -0.11302E-04  1944   0.266E-02    0.101E-02
DAV:  28    -0.255797267586E+03   -0.14055E-03   -0.16417E-05  1256   0.116E-02    0.464E-03
DAV:  29    -0.255797303728E+03   -0.36142E-04   -0.26623E-05  1464   0.131E-02    0.128E-02
DAV:  30    -0.255797308910E+03   -0.51815E-05   -0.15484E-05  1104   0.134E-02    0.280E-03
DAV:  31    -0.255797309267E+03   -0.35734E-06   -0.22461E-06   896   0.374E-03
   1 F= -.25579731E+03 E0= -.25572853E+03  d E =-.137557E+00
 running on   16 total cores
 distrk:  each k-point on    8 cores,    2 groups
 distr:  one band on    4 cores,    2 groups
 using from now: INCAR     
 vasp.5.4.4.18Apr17-6-g9f103f2a35 (build Nov 27 2019 20:08:17) complex          
  
 POSCAR found type information on POSCAR  Ti
 POSCAR found :  1 types and      90 ions
 scaLAPACK will be used

 ----------------------------------------------------------------------------- 
|                                                                             |
|           W    W    AA    RRRRR   N    N  II  N    N   GGGG   !!!           |
|           W    W   A  A   R    R  NN   N  II  NN   N  G    G  !!!           |
|           W    W  A    A  R    R  N N  N  II  N N  N  G       !!!           |
|           W WW W  AAAAAA  RRRRR   N  N N  II  N  N N  G  GGG   !            |
|           WW  WW  A    A  R   R   N   NN  II  N   NN  G    G                |
|           W    W  A    A  R    R  N    N  II  N    N   GGGG   !!!           |
|                                                                             |
|      You have enabled k-point parallelism (KPAR>1).                         |
|      This developmental code was originally  written by Paul Kent at ORNL,  |
|      and carefully double checked in Vienna.                                |
|      GW as well as linear response parallelism added by Martijn Marsman     |
|      and Georg Kresse.                                                      |
|      Carefully verify results versus KPAR=1.                                |
|      Report problems to Paul Kent and Vienna.                               |
|                                                                             |
 ----------------------------------------------------------------------------- 

 LDA part: xc-table for Pade appr. of Perdew
 POSCAR found type information on POSCAR  Ti
 POSCAR found :  1 types and      90 ions

 ----------------------------------------------------------------------------- 
|                                                                             |
|           W    W    AA    RRRRR   N    N  II  N    N   GGGG   !!!           |
|           W    W   A  A   R    R  NN   N  II  NN   N  G    G  !!!           |
|           W    W  A    A  R    R  N N  N  II  N N  N  G       !!!           |
|           W WW W  AAAAAA  RRRRR   N  N N  II  N  N N  G  GGG   !            |
|           WW  WW  A    A  R   R   N   NN  II  N   NN  G    G                |
|           W    W  A    A  R    R  N    N  II  N    N   GGGG   !!!           |
|                                                                             |
|      The distance between some ions is very small                           |
|      please check the nearest neigbor list in the OUTCAR file               |
|          I HOPE YOU KNOW, WHAT YOU ARE  DOING                               |
|                                                                             |
 ----------------------------------------------------------------------------- 

 POSCAR, INCAR and KPOINTS ok, starting setup
 FFT: planning ...
 WAVECAR not read
 WARNING: random wavefunctions but no delay for mixing, default for NELMDL
 entering main loop
       N       E                     dE             d eps       ncg     rms          rms(c)
DAV:   1     0.168384639798E+04    0.16838E+04   -0.10507E+05  3164   0.126E+03
DAV:   2    -0.467311529605E+03   -0.21512E+04   -0.20909E+04  3164   0.289E+02
DAV:   3    -0.772861668703E+03   -0.30555E+03   -0.28630E+03  4512   0.107E+02
DAV:   4    -0.797380104331E+03   -0.24518E+02   -0.22948E+02  4536   0.302E+01
DAV:   5    -0.798601221301E+03   -0.12211E+01   -0.11736E+01  4632   0.526E+00    0.132E+02
DAV:   6    -0.327094648499E+04   -0.24723E+04   -0.29200E+04  6280   0.352E+02    0.219E+02
DAV:   7    -0.926318655779E+03    0.23446E+04   -0.19212E+04  5860   0.221E+02    0.959E+01
DAV:   8    -0.676241360908E+03    0.25008E+03   -0.44491E+03  4950   0.178E+02    0.616E+01
DAV:   9    -0.703199267038E+03   -0.26958E+02   -0.12630E+03  5714   0.852E+01    0.642E+01
DAV:  10    -0.655228422164E+03    0.47971E+02   -0.44606E+02  5720   0.580E+01    0.571E+01
DAV:  11    -0.642785437223E+03    0.12443E+02   -0.18798E+02  5496   0.327E+01    0.491E+01
DAV:  12    -0.640054130191E+03    0.27313E+01   -0.37952E+02  5144   0.617E+01    0.330E+01
DAV:  13    -0.623095780569E+03    0.16958E+02   -0.14500E+02  5456   0.341E+01    0.256E+01
DAV:  14    -0.618645794833E+03    0.44500E+01   -0.31905E+01  4840   0.126E+01    0.206E+01
DAV:  15    -0.618026848251E+03    0.61895E+00   -0.22827E+00  4648   0.338E+00    0.198E+01
DAV:  16    -0.615851461520E+03    0.21754E+01   -0.41910E+00  5032   0.451E+00    0.176E+01
DAV:  17    -0.615071541027E+03    0.77992E+00   -0.12040E+01  4848   0.700E+00    0.164E+01
DAV:  18    -0.611988284497E+03    0.30833E+01   -0.15633E+01  4936   0.843E+00    0.101E+01
DAV:  19    -0.611426928581E+03    0.56136E+00   -0.10974E+01  5296   0.653E+00    0.885E+00
DAV:  20    -0.611283625217E+03    0.14330E+00   -0.54177E+00  4944   0.561E+00    0.653E+00
DAV:  21    -0.611216701609E+03    0.66924E-01   -0.19098E+00  5048   0.298E+00    0.547E+00
DAV:  22    -0.611002509512E+03    0.21419E+00   -0.11030E+00  4888   0.256E+00    0.382E+00
DAV:  23    -0.610962534374E+03    0.39975E-01   -0.44783E-01  4944   0.148E+00    0.314E+00
DAV:  24    -0.610963327700E+03   -0.79333E-03   -0.26044E-01  4832   0.122E+00    0.267E+00
DAV:  25    -0.610948479309E+03    0.14848E-01   -0.10028E-01  4840   0.706E-01    0.195E+00
DAV:  26    -0.610936378255E+03    0.12101E-01   -0.94999E-02  4856   0.707E-01    0.147E+00
DAV:  27    -0.610921391487E+03    0.14987E-01   -0.50077E-02  5088   0.509E-01    0.992E-01
DAV:  28    -0.610915972132E+03    0.54194E-02   -0.24961E-02  4960   0.333E-01    0.692E-01
DAV:  29    -0.610912969233E+03    0.30029E-02   -0.21274E-02  5160   0.323E-01    0.261E-01
DAV:  30    -0.610913892826E+03   -0.92359E-03   -0.13733E-02  4912   0.278E-01    0.350E-01
DAV:  31    -0.610912537462E+03    0.13554E-02   -0.41040E-03  4960   0.167E-01    0.149E-01
DAV:  32    -0.610912309887E+03    0.22758E-03   -0.18617E-03  5112   0.938E-02    0.611E-02
DAV:  33    -0.610912294646E+03    0.15241E-04   -0.43222E-04  4944   0.458E-02    0.350E-02
DAV:  34    -0.610912288262E+03    0.63838E-05   -0.16114E-04  4888   0.317E-02    0.270E-02
DAV:  35    -0.610912285501E+03    0.27615E-05   -0.39414E-05  4000   0.142E-02
   1 F= -.61091229E+03 E0= -.61082948E+03  d E =-.165613E+00
Distance=1.500
 running on   16 total cores
 distrk:  each k-point on    8 cores,    2 groups
 distr:  one band on    4 cores,    2 groups
 using from now: INCAR     
 vasp.5.4.4.18Apr17-6-g9f103f2a35 (build Nov 27 2019 20:08:17) complex          
  
 POSCAR found type information on POSCAR  Ti
 POSCAR found :  1 types and      54 ions
 scaLAPACK will be used

 ----------------------------------------------------------------------------- 
|                                                                             |
|           W    W    AA    RRRRR   N    N  II  N    N   GGGG   !!!           |
|           W    W   A  A   R    R  NN   N  II  NN   N  G    G  !!!           |
|           W    W  A    A  R    R  N N  N  II  N N  N  G       !!!           |
|           W WW W  AAAAAA  RRRRR   N  N N  II  N  N N  G  GGG   !            |
|           WW  WW  A    A  R   R   N   NN  II  N   NN  G    G                |
|           W    W  A    A  R    R  N    N  II  N    N   GGGG   !!!           |
|                                                                             |
|      You have enabled k-point parallelism (KPAR>1).                         |
|      This developmental code was originally  written by Paul Kent at ORNL,  |
|      and carefully double checked in Vienna.                                |
|      GW as well as linear response parallelism added by Martijn Marsman     |
|      and Georg Kresse.                                                      |
|      Carefully verify results versus KPAR=1.                                |
|      Report problems to Paul Kent and Vienna.                               |
|                                                                             |
 ----------------------------------------------------------------------------- 

 LDA part: xc-table for Pade appr. of Perdew
 POSCAR found type information on POSCAR  Ti
 POSCAR found :  1 types and      54 ions
 POSCAR, INCAR and KPOINTS ok, starting setup
 FFT: planning ...
 WAVECAR not read
 entering main loop
       N       E                     dE             d eps       ncg     rms          rms(c)
DAV:   1     0.992384618151E+03    0.99238E+03   -0.62031E+04  1904   0.116E+03
DAV:   2    -0.281269862733E+03   -0.12737E+04   -0.12348E+04  1904   0.257E+02
DAV:   3    -0.468836366877E+03   -0.18757E+03   -0.17864E+03  2992   0.885E+01
DAV:   4    -0.485194988527E+03   -0.16359E+02   -0.15480E+02  3056   0.272E+01
DAV:   5    -0.486216054720E+03   -0.10211E+01   -0.96784E+00  3056   0.544E+00    0.858E+01
DAV:   6    -0.923755177130E+03   -0.43754E+03   -0.53373E+03  3760   0.108E+02    0.127E+02
DAV:   7    -0.433832150641E+03    0.48992E+03   -0.68915E+03  3416   0.157E+02    0.475E+01
DAV:   8    -0.407738639522E+03    0.26094E+02   -0.10318E+03  3120   0.896E+01    0.320E+01
DAV:   9    -0.415376907835E+03   -0.76383E+01   -0.18613E+02  3152   0.265E+01    0.289E+01
DAV:  10    -0.417622899836E+03   -0.22460E+01   -0.16937E+01  3144   0.737E+00    0.309E+01
DAV:  11    -0.417352666039E+03    0.27023E+00   -0.15769E+00  3080   0.165E+00    0.306E+01
DAV:  12    -0.414659184701E+03    0.26935E+01   -0.31930E+00  3040   0.497E+00    0.278E+01
DAV:  13    -0.405584497532E+03    0.90747E+01   -0.97864E+00  2360   0.102E+01    0.202E+01
DAV:  14    -0.402888072037E+03    0.26964E+01   -0.13026E+01  2984   0.995E+00    0.150E+01
DAV:  15    -0.402962759769E+03   -0.74688E-01   -0.47348E-01  2992   0.159E+00    0.154E+01
DAV:  16    -0.402622428358E+03    0.34033E+00   -0.78032E-02  3176   0.686E-01    0.146E+01
DAV:  17    -0.401553359892E+03    0.10691E+01   -0.12431E+00  3064   0.274E+00    0.938E+00
DAV:  18    -0.400651442873E+03    0.90192E+00   -0.19117E+00  2896   0.359E+00    0.553E+00
DAV:  19    -0.400629491428E+03    0.21951E-01   -0.22530E-01  2536   0.147E+00    0.534E+00
DAV:  20    -0.400563543898E+03    0.65948E-01   -0.10444E-01  3040   0.630E-01    0.457E+00
DAV:  21    -0.400342813895E+03    0.22073E+00   -0.12811E+00  3072   0.229E+00    0.184E+00
DAV:  22    -0.400310754342E+03    0.32060E-01   -0.10205E-01  2656   0.880E-01    0.169E+00
DAV:  23    -0.400250529687E+03    0.60225E-01   -0.10716E-01  3088   0.637E-01    0.711E-01
DAV:  24    -0.400245714362E+03    0.48153E-02   -0.22898E-02  3152   0.342E-01    0.850E-01
DAV:  25    -0.400252031662E+03   -0.63173E-02   -0.77385E-02  3144   0.530E-01    0.160E+00
DAV:  26    -0.400247934749E+03    0.40969E-02   -0.10861E-02  2816   0.262E-01    0.138E+00
DAV:  27    -0.400245052876E+03    0.28819E-02   -0.44778E-03  2808   0.140E-01    0.111E+00
DAV:  28    -0.400243696900E+03    0.13560E-02   -0.12551E-03  2880   0.100E-01    0.883E-01
DAV:  29    -0.400242783844E+03    0.91306E-03   -0.52098E-04  3072   0.408E-02    0.753E-01
DAV:  30    -0.400241507999E+03    0.12758E-02   -0.83239E-04  2960   0.446E-02    0.587E-01
DAV:  31    -0.400239842924E+03    0.16651E-02   -0.28162E-03  2960   0.854E-02    0.291E-01
DAV:  32    -0.400239466683E+03    0.37624E-03   -0.12177E-03  3184   0.592E-02    0.131E-01
DAV:  33    -0.400239401754E+03    0.64929E-04   -0.41427E-04  3112   0.350E-02    0.920E-02
DAV:  34    -0.400239358065E+03    0.43689E-04   -0.26727E-04  3184   0.329E-02    0.115E-01
DAV:  35    -0.400239340658E+03    0.17407E-04   -0.27775E-05  2032   0.138E-02    0.997E-02
DAV:  36    -0.400239316405E+03    0.24253E-04   -0.29423E-05  2224   0.102E-02    0.636E-02
DAV:  37    -0.400239308340E+03    0.80644E-05   -0.25873E-05  2168   0.971E-03    0.364E-02
DAV:  38    -0.400239309036E+03   -0.69627E-06   -0.10694E-05  1480   0.934E-03
   1 F= -.40023931E+03 E0= -.40018482E+03  d E =-.108970E+00
 running on   16 total cores
 distrk:  each k-point on    8 cores,    2 groups
 distr:  one band on    4 cores,    2 groups
 using from now: INCAR     
 vasp.5.4.4.18Apr17-6-g9f103f2a35 (build Nov 27 2019 20:08:17) complex          
  
 POSCAR found type information on POSCAR  Ti
 POSCAR found :  1 types and      36 ions
 scaLAPACK will be used

 ----------------------------------------------------------------------------- 
|                                                                             |
|           W    W    AA    RRRRR   N    N  II  N    N   GGGG   !!!           |
|           W    W   A  A   R    R  NN   N  II  NN   N  G    G  !!!           |
|           W    W  A    A  R    R  N N  N  II  N N  N  G       !!!           |
|           W WW W  AAAAAA  RRRRR   N  N N  II  N  N N  G  GGG   !            |
|           WW  WW  A    A  R   R   N   NN  II  N   NN  G    G                |
|           W    W  A    A  R    R  N    N  II  N    N   GGGG   !!!           |
|                                                                             |
|      You have enabled k-point parallelism (KPAR>1).                         |
|      This developmental code was originally  written by Paul Kent at ORNL,  |
|      and carefully double checked in Vienna.                                |
|      GW as well as linear response parallelism added by Martijn Marsman     |
|      and Georg Kresse.                                                      |
|      Carefully verify results versus KPAR=1.                                |
|      Report problems to Paul Kent and Vienna.                               |
|                                                                             |
 ----------------------------------------------------------------------------- 

 LDA part: xc-table for Pade appr. of Perdew
 POSCAR found type information on POSCAR  Ti
 POSCAR found :  1 types and      36 ions
 POSCAR, INCAR and KPOINTS ok, starting setup
 FFT: planning ...
 WAVECAR not read
 WARNING: random wavefunctions but no delay for mixing, default for NELMDL
 entering main loop
       N       E                     dE             d eps       ncg     rms          rms(c)
DAV:   1     0.728301645168E+03    0.72830E+03   -0.40618E+04  1288   0.107E+03
DAV:   2    -0.185905676784E+03   -0.91421E+03   -0.87823E+03  1288   0.243E+02
DAV:   3    -0.320086050210E+03   -0.13418E+03   -0.12544E+03  1960   0.863E+01
DAV:   4    -0.330603148855E+03   -0.10517E+02   -0.97864E+01  1936   0.283E+01
DAV:   5    -0.331138012784E+03   -0.53486E+00   -0.52278E+00  2040   0.584E+00    0.782E+01
DAV:   6    -0.499031608676E+03   -0.16789E+03   -0.28749E+03  2432   0.986E+01    0.996E+01
DAV:   7    -0.286085202197E+03    0.21295E+03   -0.38935E+03  2244   0.176E+02    0.341E+01
DAV:   8    -0.284809290135E+03    0.12759E+01   -0.57168E+02  1904   0.778E+01    0.382E+01
DAV:   9    -0.268468223142E+03    0.16341E+02   -0.85722E+01  2040   0.302E+01    0.289E+01
DAV:  10    -0.266613551613E+03    0.18547E+01   -0.63055E+00  2104   0.665E+00    0.271E+01
DAV:  11    -0.265139585467E+03    0.14740E+01   -0.11023E+00  2152   0.286E+00    0.249E+01
DAV:  12    -0.262538564046E+03    0.26010E+01   -0.57899E+00  1968   0.729E+00    0.212E+01
DAV:  13    -0.256320672214E+03    0.62179E+01   -0.28462E+01  2104   0.153E+01    0.698E+00
DAV:  14    -0.256041598915E+03    0.27907E+00   -0.28623E+00  2080   0.413E+00    0.465E+00
DAV:  15    -0.256165180563E+03   -0.12358E+00   -0.67597E-01  2048   0.237E+00    0.506E+00
DAV:  16    -0.255923206199E+03    0.24197E+00   -0.23489E+00  2096   0.366E+00    0.309E+00
DAV:  17    -0.255792378593E+03    0.13083E+00   -0.68878E-01  2088   0.261E+00    0.115E+00
DAV:  18    -0.255789388684E+03    0.29899E-02   -0.15784E-01  1928   0.122E+00    0.835E-01
DAV:  19    -0.255825325441E+03   -0.35937E-01   -0.33923E-01  1952   0.174E+00    0.162E+00
DAV:  20    -0.255803862830E+03    0.21463E-01   -0.20244E-01  1976   0.119E+00    0.724E-01
DAV:  21    -0.255795123763E+03    0.87391E-02   -0.30730E-02  1904   0.674E-01    0.196E-01
DAV:  22    -0.255796128240E+03   -0.10045E-02   -0.42591E-03  2192   0.173E-01    0.132E-01
DAV:  23    -0.255796279058E+03   -0.15082E-03   -0.23813E-03  2064   0.150E-01    0.961E-02
DAV:  24    -0.255796474148E+03   -0.19509E-03   -0.71952E-04  1944   0.718E-02    0.758E-02
DAV:  25    -0.255796823303E+03   -0.34916E-03   -0.59817E-04  2056   0.591E-02    0.435E-02
DAV:  26    -0.255797281055E+03   -0.45775E-03   -0.29158E-04  1968   0.435E-02    0.355E-02
DAV:  27    -0.255797474662E+03   -0.19361E-03   -0.61345E-05  1848   0.197E-02    0.149E-02
DAV:  28    -0.255797674530E+03   -0.19987E-03   -0.51244E-05  1784   0.212E-02    0.799E-03
DAV:  29    -0.255797716366E+03   -0.41836E-04   -0.52770E-06   944   0.818E-03    0.789E-03
DAV:  30    -0.255797731328E+03   -0.14963E-04   -0.23901E-06   896   0.708E-03    0.465E-03
DAV:  31    -0.255797734962E+03   -0.36333E-05   -0.27485E-06   896   0.534E-03
   1 F= -.25579773E+03 E0= -.25572896E+03  d E =-.137559E+00
 running on   16 total cores
 distrk:  each k-point on    8 cores,    2 groups
 distr:  one band on    4 cores,    2 groups
 using from now: INCAR     
 vasp.5.4.4.18Apr17-6-g9f103f2a35 (build Nov 27 2019 20:08:17) complex          
  
 POSCAR found type information on POSCAR  Ti
 POSCAR found :  1 types and      90 ions
 scaLAPACK will be used

 ----------------------------------------------------------------------------- 
|                                                                             |
|           W    W    AA    RRRRR   N    N  II  N    N   GGGG   !!!           |
|           W    W   A  A   R    R  NN   N  II  NN   N  G    G  !!!           |
|           W    W  A    A  R    R  N N  N  II  N N  N  G       !!!           |
|           W WW W  AAAAAA  RRRRR   N  N N  II  N  N N  G  GGG   !            |
|           WW  WW  A    A  R   R   N   NN  II  N   NN  G    G                |
|           W    W  A    A  R    R  N    N  II  N    N   GGGG   !!!           |
|                                                                             |
|      You have enabled k-point parallelism (KPAR>1).                         |
|      This developmental code was originally  written by Paul Kent at ORNL,  |
|      and carefully double checked in Vienna.                                |
|      GW as well as linear response parallelism added by Martijn Marsman     |
|      and Georg Kresse.                                                      |
|      Carefully verify results versus KPAR=1.                                |
|      Report problems to Paul Kent and Vienna.                               |
|                                                                             |
 ----------------------------------------------------------------------------- 

 LDA part: xc-table for Pade appr. of Perdew
 POSCAR found type information on POSCAR  Ti
 POSCAR found :  1 types and      90 ions

 ----------------------------------------------------------------------------- 
|                                                                             |
|           W    W    AA    RRRRR   N    N  II  N    N   GGGG   !!!           |
|           W    W   A  A   R    R  NN   N  II  NN   N  G    G  !!!           |
|           W    W  A    A  R    R  N N  N  II  N N  N  G       !!!           |
|           W WW W  AAAAAA  RRRRR   N  N N  II  N  N N  G  GGG   !            |
|           WW  WW  A    A  R   R   N   NN  II  N   NN  G    G                |
|           W    W  A    A  R    R  N    N  II  N    N   GGGG   !!!           |
|                                                                             |
|      The distance between some ions is very small                           |
|      please check the nearest neigbor list in the OUTCAR file               |
|          I HOPE YOU KNOW, WHAT YOU ARE  DOING                               |
|                                                                             |
 ----------------------------------------------------------------------------- 

 POSCAR, INCAR and KPOINTS ok, starting setup
 FFT: planning ...
 WAVECAR not read
 WARNING: random wavefunctions but no delay for mixing, default for NELMDL
 entering main loop
       N       E                     dE             d eps       ncg     rms          rms(c)
DAV:   1     0.157635405457E+04    0.15764E+04   -0.10362E+05  3164   0.125E+03
DAV:   2    -0.463918420142E+03   -0.20403E+04   -0.19830E+04  3164   0.279E+02
DAV:   3    -0.766249531220E+03   -0.30233E+03   -0.28275E+03  4624   0.985E+01
DAV:   4    -0.790456302194E+03   -0.24207E+02   -0.22816E+02  4632   0.294E+01
DAV:   5    -0.791385401344E+03   -0.92910E+00   -0.90396E+00  4496   0.459E+00    0.120E+02
DAV:   6    -0.214808229900E+04   -0.13567E+04   -0.13367E+04  6254   0.194E+02    0.168E+02
DAV:   7    -0.994887099607E+03    0.11532E+04   -0.18700E+04  5812   0.184E+02    0.964E+01
DAV:   8    -0.703734384985E+03    0.29115E+03   -0.36647E+03  5050   0.152E+02    0.653E+01
DAV:   9    -0.782164964874E+03   -0.78431E+02   -0.15362E+03  5690   0.927E+01    0.628E+01
DAV:  10    -0.723358173658E+03    0.58807E+02   -0.66678E+02  5574   0.637E+01    0.523E+01
DAV:  11    -0.700710556381E+03    0.22648E+02   -0.16064E+02  5176   0.264E+01    0.427E+01
DAV:  12    -0.697363387215E+03    0.33472E+01   -0.18317E+01  4880   0.857E+00    0.403E+01
DAV:  13    -0.694161385568E+03    0.32020E+01   -0.28474E+00  4600   0.378E+00    0.361E+01
DAV:  14    -0.686936812034E+03    0.72246E+01   -0.14262E+01  4872   0.846E+00    0.272E+01
DAV:  15    -0.683186743683E+03    0.37501E+01   -0.72508E+00  4800   0.621E+00    0.222E+01
DAV:  16    -0.680948620357E+03    0.22381E+01   -0.26660E+00  4688   0.409E+00    0.187E+01
DAV:  17    -0.677725085054E+03    0.32235E+01   -0.85121E+00  4552   0.719E+00    0.120E+01
DAV:  18    -0.675434013419E+03    0.22911E+01   -0.84991E+00  4384   0.721E+00    0.483E+00
DAV:  19    -0.675211635935E+03    0.22238E+00   -0.24925E+00  4848   0.360E+00    0.326E+00
DAV:  20    -0.675038614404E+03    0.17302E+00   -0.11487E+00  4680   0.264E+00    0.169E+00
DAV:  21    -0.675016152806E+03    0.22462E-01   -0.41857E-01  4808   0.146E+00    0.138E+00
DAV:  22    -0.675020374032E+03   -0.42212E-02   -0.35691E-01  4176   0.150E+00    0.136E+00
DAV:  23    -0.675018951556E+03    0.14225E-02   -0.84857E-02  4664   0.651E-01    0.133E+00
DAV:  24    -0.675001070278E+03    0.17881E-01   -0.10832E-01  4576   0.774E-01    0.732E-01
DAV:  25    -0.674995514479E+03    0.55558E-02   -0.58412E-02  4648   0.563E-01    0.386E-01
DAV:  26    -0.674994659717E+03    0.85476E-03   -0.19105E-02  4784   0.313E-01    0.309E-01
DAV:  27    -0.674993807144E+03    0.85257E-03   -0.77306E-03  4792   0.190E-01    0.216E-01
DAV:  28    -0.674993613565E+03    0.19358E-03   -0.20123E-03  4816   0.102E-01    0.167E-01
DAV:  29    -0.674993499718E+03    0.11385E-03   -0.59169E-04  4752   0.614E-02    0.104E-01
DAV:  30    -0.674993454751E+03    0.44967E-04   -0.42203E-04  4840   0.495E-02    0.598E-02
DAV:  31    -0.674993424772E+03    0.29978E-04   -0.30058E-04  4808   0.381E-02    0.357E-02
DAV:  32    -0.674993416955E+03    0.78173E-05   -0.12917E-04  4736   0.261E-02    0.273E-02
DAV:  33    -0.674993412824E+03    0.41314E-05   -0.30441E-05  3560   0.130E-02
   1 F= -.67499341E+03 E0= -.67490007E+03  d E =-.186676E+00
Distance=2.000
 running on   16 total cores
 distrk:  each k-point on    8 cores,    2 groups
 distr:  one band on    4 cores,    2 groups
 using from now: INCAR     
 vasp.5.4.4.18Apr17-6-g9f103f2a35 (build Nov 27 2019 20:08:17) complex          
  
 POSCAR found type information on POSCAR  Ti
 POSCAR found :  1 types and      54 ions
 scaLAPACK will be used

 ----------------------------------------------------------------------------- 
|                                                                             |
|           W    W    AA    RRRRR   N    N  II  N    N   GGGG   !!!           |
|           W    W   A  A   R    R  NN   N  II  NN   N  G    G  !!!           |
|           W    W  A    A  R    R  N N  N  II  N N  N  G       !!!           |
|           W WW W  AAAAAA  RRRRR   N  N N  II  N  N N  G  GGG   !            |
|           WW  WW  A    A  R   R   N   NN  II  N   NN  G    G                |
|           W    W  A    A  R    R  N    N  II  N    N   GGGG   !!!           |
|                                                                             |
|      You have enabled k-point parallelism (KPAR>1).                         |
|      This developmental code was originally  written by Paul Kent at ORNL,  |
|      and carefully double checked in Vienna.                                |
|      GW as well as linear response parallelism added by Martijn Marsman     |
|      and Georg Kresse.                                                      |
|      Carefully verify results versus KPAR=1.                                |
|      Report problems to Paul Kent and Vienna.                               |
|                                                                             |
 ----------------------------------------------------------------------------- 

 LDA part: xc-table for Pade appr. of Perdew
 POSCAR found type information on POSCAR  Ti
 POSCAR found :  1 types and      54 ions
 POSCAR, INCAR and KPOINTS ok, starting setup
 FFT: planning ...
 WAVECAR not read
 entering main loop
       N       E                     dE             d eps       ncg     rms          rms(c)
DAV:   1     0.100357445592E+04    0.10036E+04   -0.62022E+04  1904   0.115E+03
DAV:   2    -0.280253256659E+03   -0.12838E+04   -0.12445E+04  1904   0.256E+02
DAV:   3    -0.468514685986E+03   -0.18826E+03   -0.17906E+03  3008   0.878E+01
DAV:   4    -0.485125100224E+03   -0.16610E+02   -0.15763E+02  3040   0.273E+01
DAV:   5    -0.486216161011E+03   -0.10911E+01   -0.10361E+01  3104   0.562E+00    0.858E+01
DAV:   6    -0.923721244503E+03   -0.43751E+03   -0.53354E+03  3760   0.108E+02    0.127E+02
DAV:   7    -0.443753781043E+03    0.47997E+03   -0.72145E+03  3416   0.159E+02    0.491E+01
DAV:   8    -0.408902005143E+03    0.34852E+02   -0.10658E+03  3136   0.938E+01    0.333E+01
DAV:   9    -0.415990632298E+03   -0.70886E+01   -0.20824E+02  3184   0.287E+01    0.296E+01
DAV:  10    -0.417785242421E+03   -0.17946E+01   -0.21067E+01  3168   0.823E+00    0.311E+01
DAV:  11    -0.417951532423E+03   -0.16629E+00   -0.16326E+00  3144   0.166E+00    0.312E+01
DAV:  12    -0.421601981089E+03   -0.36504E+01   -0.50699E+00  3008   0.556E+00    0.347E+01
DAV:  13    -0.414958686113E+03    0.66433E+01   -0.48950E+00  2856   0.632E+00    0.273E+01
DAV:  14    -0.408777894296E+03    0.61808E+01   -0.98973E+01  2680   0.279E+01    0.259E+01
DAV:  15    -0.405083910970E+03    0.36940E+01   -0.26731E+01  3128   0.147E+01    0.225E+01
DAV:  16    -0.405154187604E+03   -0.70277E-01   -0.20250E+00  3112   0.298E+00    0.212E+01
DAV:  17    -0.406969869904E+03   -0.18157E+01   -0.77202E+00  3048   0.528E+00    0.197E+01
DAV:  18    -0.406829427247E+03    0.14044E+00   -0.99553E-01  2632   0.284E+00    0.185E+01
DAV:  19    -0.404599309726E+03    0.22301E+01   -0.20288E+00  2984   0.320E+00    0.150E+01
DAV:  20    -0.403831156587E+03    0.76815E+00   -0.39719E-01  3128   0.126E+00    0.137E+01
DAV:  21    -0.401577110809E+03    0.22540E+01   -0.32694E+00  2960   0.249E+00    0.788E+00
DAV:  22    -0.401055699675E+03    0.52141E+00   -0.69790E-01  2944   0.170E+00    0.609E+00
DAV:  23    -0.400327455114E+03    0.72824E+00   -0.22827E+00  3072   0.256E+00    0.276E+00
DAV:  24    -0.400263930592E+03    0.63525E-01   -0.34276E-01  3272   0.124E+00    0.170E+00
DAV:  25    -0.400247168169E+03    0.16762E-01   -0.29913E-01  3048   0.827E-01    0.143E+00
DAV:  26    -0.400266132164E+03   -0.18964E-01   -0.94924E-02  3176   0.542E-01    0.147E+00
DAV:  27    -0.400266714849E+03   -0.58269E-03   -0.12128E-02  3072   0.265E-01    0.136E+00
DAV:  28    -0.400272993866E+03   -0.62790E-02   -0.38464E-03  2896   0.968E-02    0.145E+00
DAV:  29    -0.400252112988E+03    0.20881E-01   -0.18720E-02  3032   0.251E-01    0.950E-01
DAV:  30    -0.400247826038E+03    0.42869E-02   -0.43605E-03  3168   0.120E-01    0.765E-01
DAV:  31    -0.400239057206E+03    0.87688E-02   -0.19728E-02  3032   0.231E-01    0.257E-01
DAV:  32    -0.400238400320E+03    0.65689E-03   -0.48612E-03  3168   0.130E-01    0.993E-02
DAV:  33    -0.400238413771E+03   -0.13451E-04   -0.11016E-03  3104   0.535E-02    0.109E-01
DAV:  34    -0.400238347682E+03    0.66089E-04   -0.32129E-04  3008   0.446E-02    0.773E-02
DAV:  35    -0.400238368402E+03   -0.20720E-04   -0.64257E-05  2728   0.176E-02    0.701E-02
DAV:  36    -0.400238354575E+03    0.13828E-04   -0.15644E-05  1832   0.118E-02    0.576E-02
DAV:  37    -0.400238329063E+03    0.25512E-04   -0.37267E-05  2440   0.124E-02    0.338E-02
DAV:  38    -0.400238317115E+03    0.11948E-04   -0.23638E-05  2064   0.800E-03    0.163E-02
DAV:  39    -0.400238313761E+03    0.33540E-05   -0.90345E-06  1472   0.595E-03
   1 F= -.40023831E+03 E0= -.40018379E+03  d E =-.109051E+00
 running on   16 total cores
 distrk:  each k-point on    8 cores,    2 groups
 distr:  one band on    4 cores,    2 groups
 using from now: INCAR     
 vasp.5.4.4.18Apr17-6-g9f103f2a35 (build Nov 27 2019 20:08:17) complex          
  
 POSCAR found type information on POSCAR  Ti
 POSCAR found :  1 types and      36 ions
 scaLAPACK will be used

 ----------------------------------------------------------------------------- 
|                                                                             |
|           W    W    AA    RRRRR   N    N  II  N    N   GGGG   !!!           |
|           W    W   A  A   R    R  NN   N  II  NN   N  G    G  !!!           |
|           W    W  A    A  R    R  N N  N  II  N N  N  G       !!!           |
|           W WW W  AAAAAA  RRRRR   N  N N  II  N  N N  G  GGG   !            |
|           WW  WW  A    A  R   R   N   NN  II  N   NN  G    G                |
|           W    W  A    A  R    R  N    N  II  N    N   GGGG   !!!           |
|                                                                             |
|      You have enabled k-point parallelism (KPAR>1).                         |
|      This developmental code was originally  written by Paul Kent at ORNL,  |
|      and carefully double checked in Vienna.                                |
|      GW as well as linear response parallelism added by Martijn Marsman     |
|      and Georg Kresse.                                                      |
|      Carefully verify results versus KPAR=1.                                |
|      Report problems to Paul Kent and Vienna.                               |
|                                                                             |
 ----------------------------------------------------------------------------- 

 LDA part: xc-table for Pade appr. of Perdew
 POSCAR found type information on POSCAR  Ti
 POSCAR found :  1 types and      36 ions
 POSCAR, INCAR and KPOINTS ok, starting setup
 FFT: planning ...
 WAVECAR not read
 WARNING: random wavefunctions but no delay for mixing, default for NELMDL
 entering main loop
       N       E                     dE             d eps       ncg     rms          rms(c)
DAV:   1     0.729935808957E+03    0.72994E+03   -0.40499E+04  1288   0.107E+03
DAV:   2    -0.185867917673E+03   -0.91580E+03   -0.87960E+03  1288   0.242E+02
DAV:   3    -0.320414816689E+03   -0.13455E+03   -0.12640E+03  1984   0.856E+01
DAV:   4    -0.330582783937E+03   -0.10168E+02   -0.94642E+01  1904   0.283E+01
DAV:   5    -0.331131569722E+03   -0.54879E+00   -0.53510E+00  2032   0.583E+00    0.781E+01
DAV:   6    -0.504097683689E+03   -0.17297E+03   -0.29281E+03  2424   0.995E+01    0.998E+01
DAV:   7    -0.287343274089E+03    0.21675E+03   -0.39898E+03  2252   0.178E+02    0.343E+01
DAV:   8    -0.284897395845E+03    0.24459E+01   -0.57615E+02  1888   0.785E+01    0.382E+01
DAV:   9    -0.268797510642E+03    0.16100E+02   -0.84706E+01  2032   0.298E+01    0.292E+01
DAV:  10    -0.266989995284E+03    0.18075E+01   -0.64446E+00  2088   0.659E+00    0.274E+01
DAV:  11    -0.265462115535E+03    0.15279E+01   -0.10740E+00  2124   0.281E+00    0.253E+01
DAV:  12    -0.261618954502E+03    0.38432E+01   -0.11409E+01  1936   0.103E+01    0.196E+01
DAV:  13    -0.256334173544E+03    0.52848E+01   -0.25529E+01  2128   0.138E+01    0.700E+00
DAV:  14    -0.256095682357E+03    0.23849E+00   -0.23026E+00  2088   0.397E+00    0.491E+00
DAV:  15    -0.256227921551E+03   -0.13224E+00   -0.75348E-01  2056   0.237E+00    0.544E+00
DAV:  16    -0.255940766501E+03    0.28716E+00   -0.29775E+00  2080   0.430E+00    0.334E+00
DAV:  17    -0.255793027724E+03    0.14774E+00   -0.67438E-01  2052   0.261E+00    0.134E+00
DAV:  18    -0.255785711138E+03    0.73166E-02   -0.22343E-01  2056   0.139E+00    0.787E-01
DAV:  19    -0.255812330030E+03   -0.26619E-01   -0.22613E-01  1968   0.132E+00    0.140E+00
DAV:  20    -0.255800832490E+03    0.11498E-01   -0.14261E-01  2008   0.982E-01    0.673E-01
DAV:  21    -0.255794109259E+03    0.67232E-02   -0.35956E-02  1888   0.696E-01    0.280E-01
DAV:  22    -0.255795135665E+03   -0.10264E-02   -0.10363E-02  2088   0.241E-01    0.183E-01
DAV:  23    -0.255796297849E+03   -0.11622E-02   -0.19362E-03  1784   0.123E-01    0.948E-02
DAV:  24    -0.255796547714E+03   -0.24986E-03   -0.14379E-03  2032   0.108E-01    0.679E-02
DAV:  25    -0.255796682710E+03   -0.13500E-03   -0.48115E-04  2000   0.662E-02    0.302E-02
DAV:  26    -0.255796873132E+03   -0.19042E-03   -0.71071E-05  1640   0.232E-02    0.250E-02
DAV:  27    -0.255797050282E+03   -0.17715E-03   -0.99690E-05  1928   0.260E-02    0.163E-02
DAV:  28    -0.255797147973E+03   -0.97691E-04   -0.88373E-06  1056   0.112E-02    0.748E-03
DAV:  29    -0.255797259645E+03   -0.11167E-03   -0.11368E-05  1136   0.734E-03    0.622E-03
DAV:  30    -0.255797284129E+03   -0.24483E-04   -0.30193E-06   896   0.515E-03    0.316E-03
DAV:  31    -0.255797304343E+03   -0.20214E-04   -0.39646E-06   904   0.494E-03    0.352E-03
DAV:  32    -0.255797312602E+03   -0.82588E-05   -0.17384E-06   896   0.362E-03    0.407E-03
DAV:  33    -0.255797314258E+03   -0.16562E-05   -0.52024E-07   896   0.218E-03
   1 F= -.25579731E+03 E0= -.25572854E+03  d E =-.137553E+00
 running on   16 total cores
 distrk:  each k-point on    8 cores,    2 groups
 distr:  one band on    4 cores,    2 groups
 using from now: INCAR     
 vasp.5.4.4.18Apr17-6-g9f103f2a35 (build Nov 27 2019 20:08:17) complex          
  
 POSCAR found type information on POSCAR  Ti
 POSCAR found :  1 types and      90 ions
 scaLAPACK will be used

 ----------------------------------------------------------------------------- 
|                                                                             |
|           W    W    AA    RRRRR   N    N  II  N    N   GGGG   !!!           |
|           W    W   A  A   R    R  NN   N  II  NN   N  G    G  !!!           |
|           W    W  A    A  R    R  N N  N  II  N N  N  G       !!!           |
|           W WW W  AAAAAA  RRRRR   N  N N  II  N  N N  G  GGG   !            |
|           WW  WW  A    A  R   R   N   NN  II  N   NN  G    G                |
|           W    W  A    A  R    R  N    N  II  N    N   GGGG   !!!           |
|                                                                             |
|      You have enabled k-point parallelism (KPAR>1).                         |
|      This developmental code was originally  written by Paul Kent at ORNL,  |
|      and carefully double checked in Vienna.                                |
|      GW as well as linear response parallelism added by Martijn Marsman     |
|      and Georg Kresse.                                                      |
|      Carefully verify results versus KPAR=1.                                |
|      Report problems to Paul Kent and Vienna.                               |
|                                                                             |
 ----------------------------------------------------------------------------- 

 LDA part: xc-table for Pade appr. of Perdew
 POSCAR found type information on POSCAR  Ti
 POSCAR found :  1 types and      90 ions
 POSCAR, INCAR and KPOINTS ok, starting setup
 FFT: planning ...
 WAVECAR not read
 WARNING: random wavefunctions but no delay for mixing, default for NELMDL
 entering main loop
       N       E                     dE             d eps       ncg     rms          rms(c)
DAV:   1     0.151858997053E+04    0.15186E+04   -0.10313E+05  3164   0.124E+03
DAV:   2    -0.470737515026E+03   -0.19893E+04   -0.19351E+04  3164   0.276E+02
DAV:   3    -0.767835564032E+03   -0.29710E+03   -0.27755E+03  4752   0.949E+01
DAV:   4    -0.792524677063E+03   -0.24689E+02   -0.23439E+02  4720   0.280E+01
DAV:   5    -0.793552129823E+03   -0.10275E+01   -0.99957E+00  4608   0.432E+00    0.115E+02
DAV:   6    -0.157143762033E+04   -0.77789E+03   -0.72976E+03  6194   0.149E+02    0.106E+02
DAV:   7    -0.127204306749E+04    0.29939E+03   -0.16594E+04  5716   0.166E+02    0.106E+02
DAV:   8    -0.678113283434E+03    0.59393E+03   -0.40138E+03  5524   0.139E+02    0.596E+01
DAV:   9    -0.783803497550E+03   -0.10569E+03   -0.18114E+03  5722   0.821E+01    0.603E+01
DAV:  10    -0.703830402083E+03    0.79973E+02   -0.75321E+02  5554   0.618E+01    0.419E+01
DAV:  11    -0.700654111719E+03    0.31763E+01   -0.20502E+02  5264   0.266E+01    0.361E+01
DAV:  12    -0.695870887214E+03    0.47832E+01   -0.24591E+01  5048   0.919E+00    0.299E+01
DAV:  13    -0.691851114789E+03    0.40198E+01   -0.88802E+00  4928   0.657E+00    0.240E+01
DAV:  14    -0.687289869792E+03    0.45612E+01   -0.12843E+01  4928   0.852E+00    0.157E+01
DAV:  15    -0.684039186341E+03    0.32507E+01   -0.82147E+00  4344   0.730E+00    0.686E+00
DAV:  16    -0.683544822995E+03    0.49436E+00   -0.37567E+00  4912   0.409E+00    0.544E+00
DAV:  17    -0.683144539454E+03    0.40028E+00   -0.25200E+00  4744   0.365E+00    0.365E+00
DAV:  18    -0.683075357808E+03    0.69182E-01   -0.24351E+00  4872   0.321E+00    0.337E+00
DAV:  19    -0.682951715647E+03    0.12364E+00   -0.11901E+00  4728   0.255E+00    0.206E+00
DAV:  20    -0.682900838473E+03    0.50877E-01   -0.45805E-01  4752   0.147E+00    0.104E+00
DAV:  21    -0.682902126049E+03   -0.12876E-02   -0.19593E-01  4752   0.936E-01    0.101E+00
DAV:  22    -0.682904626018E+03   -0.25000E-02   -0.16682E-01  4912   0.890E-01    0.958E-01
DAV:  23    -0.682890886750E+03    0.13739E-01   -0.71674E-02  4776   0.650E-01    0.500E-01
DAV:  24    -0.682887786238E+03    0.31005E-02   -0.17385E-02  4800   0.288E-01    0.263E-01
DAV:  25    -0.682887330845E+03    0.45539E-03   -0.53835E-03  4872   0.148E-01    0.161E-01
DAV:  26    -0.682887372510E+03   -0.41665E-04   -0.17991E-03  4744   0.933E-02    0.133E-01
DAV:  27    -0.682887455321E+03   -0.82811E-04   -0.14671E-03  4760   0.768E-02    0.133E-01
DAV:  28    -0.682887265536E+03    0.18979E-03   -0.88632E-04  4792   0.653E-02    0.922E-02
DAV:  29    -0.682887156793E+03    0.10874E-03   -0.41982E-04  5024   0.407E-02    0.443E-02
DAV:  30    -0.682887149181E+03    0.76123E-05   -0.12718E-04  4808   0.242E-02    0.377E-02
DAV:  31    -0.682887143613E+03    0.55685E-05   -0.23995E-05  3200   0.127E-02    0.279E-02
DAV:  32    -0.682887136427E+03    0.71858E-05   -0.18574E-05  2912   0.107E-02    0.186E-02
DAV:  33    -0.682887131990E+03    0.44363E-05   -0.12769E-05  2320   0.980E-03
   1 F= -.68288713E+03 E0= -.68279486E+03  d E =-.184544E+00
Distance=2.500
 running on   16 total cores
 distrk:  each k-point on    8 cores,    2 groups
 distr:  one band on    4 cores,    2 groups
 using from now: INCAR     
 vasp.5.4.4.18Apr17-6-g9f103f2a35 (build Nov 27 2019 20:08:17) complex          
  
 POSCAR found type information on POSCAR  Ti
 POSCAR found :  1 types and      54 ions
 scaLAPACK will be used

 ----------------------------------------------------------------------------- 
|                                                                             |
|           W    W    AA    RRRRR   N    N  II  N    N   GGGG   !!!           |
|           W    W   A  A   R    R  NN   N  II  NN   N  G    G  !!!           |
|           W    W  A    A  R    R  N N  N  II  N N  N  G       !!!           |
|           W WW W  AAAAAA  RRRRR   N  N N  II  N  N N  G  GGG   !            |
|           WW  WW  A    A  R   R   N   NN  II  N   NN  G    G                |
|           W    W  A    A  R    R  N    N  II  N    N   GGGG   !!!           |
|                                                                             |
|      You have enabled k-point parallelism (KPAR>1).                         |
|      This developmental code was originally  written by Paul Kent at ORNL,  |
|      and carefully double checked in Vienna.                                |
|      GW as well as linear response parallelism added by Martijn Marsman     |
|      and Georg Kresse.                                                      |
|      Carefully verify results versus KPAR=1.                                |
|      Report problems to Paul Kent and Vienna.                               |
|                                                                             |
 ----------------------------------------------------------------------------- 

 LDA part: xc-table for Pade appr. of Perdew
 POSCAR found type information on POSCAR  Ti
 POSCAR found :  1 types and      54 ions
 POSCAR, INCAR and KPOINTS ok, starting setup
 FFT: planning ...
 WAVECAR not read
 entering main loop
       N       E                     dE             d eps       ncg     rms          rms(c)
DAV:   1     0.102021625949E+04    0.10202E+04   -0.62016E+04  1904   0.114E+03
DAV:   2    -0.277812375580E+03   -0.12980E+04   -0.12574E+04  1904   0.255E+02
DAV:   3    -0.467998461623E+03   -0.19019E+03   -0.18071E+03  3032   0.872E+01
DAV:   4    -0.485043380314E+03   -0.17045E+02   -0.16128E+02  3016   0.276E+01
DAV:   5    -0.486199275889E+03   -0.11559E+01   -0.10951E+01  3096   0.583E+00    0.858E+01
DAV:   6    -0.926625990732E+03   -0.44043E+03   -0.53598E+03  3784   0.108E+02    0.128E+02
DAV:   7    -0.455023127663E+03    0.47160E+03   -0.75500E+03  3408   0.161E+02    0.507E+01
DAV:   8    -0.410104649074E+03    0.44918E+02   -0.10995E+03  3096   0.974E+01    0.345E+01
DAV:   9    -0.416371679729E+03   -0.62670E+01   -0.22840E+02  3152   0.311E+01    0.302E+01
DAV:  10    -0.417953195120E+03   -0.15815E+01   -0.24688E+01  3168   0.898E+00    0.313E+01
DAV:  11    -0.418074171392E+03   -0.12098E+00   -0.17237E+00  3048   0.183E+00    0.315E+01
DAV:  12    -0.420216512398E+03   -0.21423E+01   -0.11349E+01  3080   0.648E+00    0.326E+01
DAV:  13    -0.420963834576E+03   -0.74732E+00   -0.47120E+00  3104   0.429E+00    0.339E+01
DAV:  14    -0.418267109663E+03    0.26967E+01   -0.32984E+01  3088   0.119E+01    0.270E+01
DAV:  15    -0.429616437696E+03   -0.11349E+02   -0.69172E+01  2840   0.179E+01    0.336E+01
DAV:  16    -0.429311147524E+03    0.30529E+00   -0.13539E+01  3056   0.922E+00    0.345E+01
DAV:  17    -0.420967374713E+03    0.83438E+01   -0.97657E+00  2944   0.732E+00    0.281E+01
DAV:  18    -0.415728298978E+03    0.52391E+01   -0.23576E+00  3120   0.383E+00    0.245E+01
DAV:  19    -0.408815734796E+03    0.69126E+01   -0.49718E+00  2968   0.355E+00    0.183E+01
DAV:  20    -0.408950063814E+03   -0.13433E+00   -0.34668E-01  2888   0.146E+00    0.183E+01
DAV:  21    -0.407565642976E+03    0.13844E+01   -0.51171E-01  3024   0.147E+00    0.168E+01
DAV:  22    -0.409512449101E+03   -0.19468E+01   -0.21331E+00  2976   0.380E+00    0.204E+01
DAV:  23    -0.400316395221E+03    0.91961E+01   -0.33815E+01  2952   0.874E+00    0.884E+00
DAV:  24    -0.400698968345E+03   -0.38257E+00   -0.35392E+00  3112   0.386E+00    0.829E+00
DAV:  25    -0.400443415940E+03    0.25555E+00   -0.73095E-01  2952   0.121E+00    0.640E+00
DAV:  26    -0.400553686680E+03   -0.11027E+00   -0.25121E+00  3040   0.226E+00    0.455E+00
DAV:  27    -0.401350962983E+03   -0.79728E+00   -0.16274E+00  3152   0.233E+00    0.723E+00
DAV:  28    -0.401103876870E+03    0.24709E+00   -0.25926E-01  2712   0.158E+00    0.641E+00
DAV:  29    -0.400494201775E+03    0.60968E+00   -0.80566E-01  3048   0.149E+00    0.382E+00
DAV:  30    -0.400330781597E+03    0.16342E+00   -0.37189E-01  3128   0.110E+00    0.251E+00
DAV:  31    -0.400320956797E+03    0.98248E-02   -0.33629E-02  2592   0.474E-01    0.236E+00
DAV:  32    -0.400293011216E+03    0.27946E-01   -0.28046E-02  3096   0.318E-01    0.187E+00
DAV:  33    -0.400239685670E+03    0.53326E-01   -0.30548E-01  3072   0.919E-01    0.378E-01
DAV:  34    -0.400240866553E+03   -0.11809E-02   -0.20599E-02  2816   0.354E-01    0.312E-01
DAV:  35    -0.400247642875E+03   -0.67763E-02   -0.39072E-02  3104   0.358E-01    0.581E-01
DAV:  36    -0.400239204987E+03    0.84379E-02   -0.23120E-02  3048   0.290E-01    0.198E-01
DAV:  37    -0.400239902294E+03   -0.69731E-03   -0.13375E-03  2672   0.996E-02    0.201E-01
DAV:  38    -0.400239647649E+03    0.25464E-03   -0.22612E-03  2768   0.899E-02    0.221E-01
DAV:  39    -0.400238839123E+03    0.80853E-03   -0.42479E-03  3024   0.104E-01    0.648E-02
DAV:  40    -0.400238860313E+03   -0.21189E-04   -0.37003E-04  2800   0.482E-02    0.620E-02
DAV:  41    -0.400238858835E+03    0.14771E-05   -0.16327E-04  3208   0.256E-02    0.312E-02
DAV:  42    -0.400238852572E+03    0.62639E-05   -0.53232E-05  2344   0.227E-02    0.139E-02
DAV:  43    -0.400238865619E+03   -0.13047E-04   -0.18051E-05  1800   0.121E-02    0.256E-02
DAV:  44    -0.400238869228E+03   -0.36091E-05   -0.16988E-05  1912   0.983E-03
   1 F= -.40023887E+03 E0= -.40018440E+03  d E =-.108930E+00
 running on   16 total cores
 distrk:  each k-point on    8 cores,    2 groups
 distr:  one band on    4 cores,    2 groups
 using from now: INCAR     
 vasp.5.4.4.18Apr17-6-g9f103f2a35 (build Nov 27 2019 20:08:17) complex          
  
 POSCAR found type information on POSCAR  Ti
 POSCAR found :  1 types and      36 ions
 scaLAPACK will be used

 ----------------------------------------------------------------------------- 
|                                                                             |
|           W    W    AA    RRRRR   N    N  II  N    N   GGGG   !!!           |
|           W    W   A  A   R    R  NN   N  II  NN   N  G    G  !!!           |
|           W    W  A    A  R    R  N N  N  II  N N  N  G       !!!           |
|           W WW W  AAAAAA  RRRRR   N  N N  II  N  N N  G  GGG   !            |
|           WW  WW  A    A  R   R   N   NN  II  N   NN  G    G                |
|           W    W  A    A  R    R  N    N  II  N    N   GGGG   !!!           |
|                                                                             |
|      You have enabled k-point parallelism (KPAR>1).                         |
|      This developmental code was originally  written by Paul Kent at ORNL,  |
|      and carefully double checked in Vienna.                                |
|      GW as well as linear response parallelism added by Martijn Marsman     |
|      and Georg Kresse.                                                      |
|      Carefully verify results versus KPAR=1.                                |
|      Report problems to Paul Kent and Vienna.                               |
|                                                                             |
 ----------------------------------------------------------------------------- 

 LDA part: xc-table for Pade appr. of Perdew
 POSCAR found type information on POSCAR  Ti
 POSCAR found :  1 types and      36 ions
 POSCAR, INCAR and KPOINTS ok, starting setup
 FFT: planning ...
 WAVECAR not read
 WARNING: random wavefunctions but no delay for mixing, default for NELMDL
 entering main loop
       N       E                     dE             d eps       ncg     rms          rms(c)
DAV:   1     0.730949786345E+03    0.73095E+03   -0.40336E+04  1288   0.106E+03
DAV:   2    -0.186941044514E+03   -0.91789E+03   -0.88245E+03  1300   0.241E+02
DAV:   3    -0.320742281360E+03   -0.13380E+03   -0.12539E+03  1984   0.855E+01
DAV:   4    -0.330633031673E+03   -0.98908E+01   -0.92198E+01  1920   0.277E+01
DAV:   5    -0.331136789502E+03   -0.50376E+00   -0.49446E+00  2016   0.567E+00    0.782E+01
DAV:   6    -0.508622504374E+03   -0.17749E+03   -0.29781E+03  2416   0.100E+02    0.100E+02
DAV:   7    -0.288956708538E+03    0.21967E+03   -0.40917E+03  2244   0.180E+02    0.346E+01
DAV:   8    -0.284894862270E+03    0.40618E+01   -0.58193E+02  1872   0.795E+01    0.382E+01
DAV:   9    -0.269254246296E+03    0.15641E+02   -0.81851E+01  2032   0.293E+01    0.294E+01
DAV:  10    -0.267379255965E+03    0.18750E+01   -0.62717E+00  2088   0.652E+00    0.277E+01
DAV:  11    -0.265389192087E+03    0.19901E+01   -0.14384E+00  2172   0.341E+00    0.250E+01
DAV:  12    -0.262536942012E+03    0.28523E+01   -0.61541E+00  1952   0.754E+00    0.212E+01
DAV:  13    -0.256336120584E+03    0.62008E+01   -0.28443E+01  2112   0.151E+01    0.694E+00
DAV:  14    -0.256110895440E+03    0.22523E+00   -0.26808E+00  2088   0.399E+00    0.488E+00
DAV:  15    -0.256230255331E+03   -0.11936E+00   -0.64454E-01  2048   0.228E+00    0.538E+00
DAV:  16    -0.255968611132E+03    0.26164E+00   -0.30086E+00  2080   0.425E+00    0.364E+00
DAV:  17    -0.255793258649E+03    0.17535E+00   -0.96669E-01  2080   0.306E+00    0.134E+00
DAV:  18    -0.255784089153E+03    0.91695E-02   -0.12580E-01  1912   0.103E+00    0.824E-01
DAV:  19    -0.255799785411E+03   -0.15696E-01   -0.11070E-01  2032   0.972E-01    0.899E-01
DAV:  20    -0.255796103201E+03    0.36822E-02   -0.12595E-01  1976   0.953E-01    0.656E-01
DAV:  21    -0.255791282258E+03    0.48209E-02   -0.20255E-02  2024   0.460E-01    0.185E-01
DAV:  22    -0.255796626867E+03   -0.53446E-02   -0.20400E-02  2080   0.382E-01    0.372E-01
DAV:  23    -0.255796291645E+03    0.33522E-03   -0.10663E-02  1968   0.293E-01    0.791E-02
DAV:  24    -0.255796832368E+03   -0.54072E-03   -0.89530E-04  2000   0.968E-02    0.352E-02
DAV:  25    -0.255797065461E+03   -0.23309E-03   -0.26044E-04  1920   0.499E-02    0.328E-02
DAV:  26    -0.255797235284E+03   -0.16982E-03   -0.12886E-04  1816   0.283E-02    0.174E-02
DAV:  27    -0.255797272635E+03   -0.37351E-04   -0.57155E-05  1856   0.191E-02    0.185E-02
DAV:  28    -0.255797364126E+03   -0.91491E-04   -0.55513E-05  1704   0.222E-02    0.127E-02
DAV:  29    -0.255797420447E+03   -0.56321E-04   -0.82804E-06  1112   0.747E-03    0.156E-02
DAV:  30    -0.255797458530E+03   -0.38083E-04   -0.33186E-06   872   0.634E-03    0.102E-02
DAV:  31    -0.255797482215E+03   -0.23685E-04   -0.72465E-06   952   0.601E-03    0.268E-03
DAV:  32    -0.255797492500E+03   -0.10286E-04   -0.20337E-06   896   0.594E-03    0.384E-03
DAV:  33    -0.255797504862E+03   -0.12362E-04   -0.30706E-06   896   0.561E-03    0.346E-03
DAV:  34    -0.255797510021E+03   -0.51585E-05   -0.15070E-06   896   0.502E-03    0.285E-03
DAV:  35    -0.255797510806E+03   -0.78510E-06   -0.71311E-07   824   0.220E-03
   1 F= -.25579751E+03 E0= -.25572873E+03  d E =-.137554E+00
 running on   16 total cores
 distrk:  each k-point on    8 cores,    2 groups
 distr:  one band on    4 cores,    2 groups
 using from now: INCAR     
 vasp.5.4.4.18Apr17-6-g9f103f2a35 (build Nov 27 2019 20:08:17) complex          
  
 POSCAR found type information on POSCAR  Ti
 POSCAR found :  1 types and      90 ions
 scaLAPACK will be used

 ----------------------------------------------------------------------------- 
|                                                                             |
|           W    W    AA    RRRRR   N    N  II  N    N   GGGG   !!!           |
|           W    W   A  A   R    R  NN   N  II  NN   N  G    G  !!!           |
|           W    W  A    A  R    R  N N  N  II  N N  N  G       !!!           |
|           W WW W  AAAAAA  RRRRR   N  N N  II  N  N N  G  GGG   !            |
|           WW  WW  A    A  R   R   N   NN  II  N   NN  G    G                |
|           W    W  A    A  R    R  N    N  II  N    N   GGGG   !!!           |
|                                                                             |
|      You have enabled k-point parallelism (KPAR>1).                         |
|      This developmental code was originally  written by Paul Kent at ORNL,  |
|      and carefully double checked in Vienna.                                |
|      GW as well as linear response parallelism added by Martijn Marsman     |
|      and Georg Kresse.                                                      |
|      Carefully verify results versus KPAR=1.                                |
|      Report problems to Paul Kent and Vienna.                               |
|                                                                             |
 ----------------------------------------------------------------------------- 

 LDA part: xc-table for Pade appr. of Perdew
 POSCAR found type information on POSCAR  Ti
 POSCAR found :  1 types and      90 ions
[...]
DAV:  42    -0.656116409115E+03    0.68559E-04   -0.19301E-04  4952   0.243E-02    0.664E-02
DAV:  43    -0.656116607579E+03   -0.19846E-03   -0.11326E-04  4616   0.189E-02    0.108E-01
DAV:  44    -0.656116648600E+03   -0.41021E-04   -0.18439E-04  4864   0.277E-02    0.106E-01
DAV:  45    -0.656116473074E+03    0.17553E-03   -0.14775E-04  4848   0.211E-02    0.511E-02
DAV:  46    -0.656116443542E+03    0.29532E-04   -0.61172E-05  4480   0.149E-02    0.315E-02
DAV:  47    -0.656116440413E+03    0.31294E-05   -0.76683E-06  2336   0.677E-03
   1 F= -.65611644E+03 E0= -.65599236E+03  d E =-.248161E+00
Distance=10.000
 running on   16 total cores
 distrk:  each k-point on    8 cores,    2 groups
 distr:  one band on    4 cores,    2 groups
 using from now: INCAR     
 vasp.5.4.4.18Apr17-6-g9f103f2a35 (build Nov 27 2019 20:08:17) complex          
  
 POSCAR found type information on POSCAR  Ti
 POSCAR found :  1 types and      54 ions
 scaLAPACK will be used

 ----------------------------------------------------------------------------- 
|                                                                             |
|           W    W    AA    RRRRR   N    N  II  N    N   GGGG   !!!           |
|           W    W   A  A   R    R  NN   N  II  NN   N  G    G  !!!           |
|           W    W  A    A  R    R  N N  N  II  N N  N  G       !!!           |
|           W WW W  AAAAAA  RRRRR   N  N N  II  N  N N  G  GGG   !            |
|           WW  WW  A    A  R   R   N   NN  II  N   NN  G    G                |
|           W    W  A    A  R    R  N    N  II  N    N   GGGG   !!!           |
|                                                                             |
|      You have enabled k-point parallelism (KPAR>1).                         |
|      This developmental code was originally  written by Paul Kent at ORNL,  |
|      and carefully double checked in Vienna.                                |
|      GW as well as linear response parallelism added by Martijn Marsman     |
|      and Georg Kresse.                                                      |
|      Carefully verify results versus KPAR=1.                                |
|      Report problems to Paul Kent and Vienna.                               |
|                                                                             |
 ----------------------------------------------------------------------------- 

 LDA part: xc-table for Pade appr. of Perdew
 POSCAR found type information on POSCAR  Ti
 POSCAR found :  1 types and      54 ions
 POSCAR, INCAR and KPOINTS ok, starting setup
 FFT: planning ...
 WAVECAR not read
 entering main loop
       N       E                     dE             d eps       ncg     rms          rms(c)
DAV:   1     0.108601935249E+04    0.10860E+04   -0.59773E+04  1904   0.106E+03
DAV:   2    -0.279884368719E+03   -0.13659E+04   -0.13180E+04  1928   0.243E+02
DAV:   3    -0.468870462779E+03   -0.18899E+03   -0.18029E+03  3152   0.824E+01
DAV:   4    -0.484973896243E+03   -0.16103E+02   -0.15163E+02  2968   0.259E+01
DAV:   5    -0.486195806982E+03   -0.12219E+01   -0.11576E+01  3112   0.602E+00    0.857E+01
DAV:   6    -0.935196984039E+03   -0.44900E+03   -0.54562E+03  3768   0.109E+02    0.128E+02
DAV:   7    -0.574290787742E+03    0.36091E+03   -0.11065E+04  3320   0.186E+02    0.622E+01
DAV:   8    -0.421040476911E+03    0.15325E+03   -0.15134E+03  2976   0.128E+02    0.463E+01
DAV:   9    -0.419099133987E+03    0.19413E+01   -0.38909E+02  3176   0.474E+01    0.353E+01
DAV:  10    -0.421331597975E+03   -0.22325E+01   -0.53189E+01  3176   0.129E+01    0.346E+01
DAV:  11    -0.420432557859E+03    0.89904E+00   -0.40900E+00  3176   0.376E+00    0.334E+01
DAV:  12    -0.408219806360E+03    0.12213E+02   -0.24912E+01  2504   0.160E+01    0.176E+01
DAV:  13    -0.403623964078E+03    0.45958E+01   -0.52267E+00  2752   0.697E+00    0.120E+01
DAV:  14    -0.404163811161E+03   -0.53985E+00   -0.39593E-01  2840   0.162E+00    0.127E+01
DAV:  15    -0.401180884500E+03    0.29829E+01   -0.89396E+00  3104   0.672E+00    0.593E+00
DAV:  16    -0.400712526343E+03    0.46836E+00   -0.11328E+00  2616   0.334E+00    0.434E+00
DAV:  17    -0.400403752207E+03    0.30877E+00   -0.70012E+00  2808   0.753E+00    0.314E+00
DAV:  18    -0.400236618167E+03    0.16713E+00   -0.85392E-01  2584   0.264E+00    0.994E-01
DAV:  19    -0.400232798872E+03    0.38193E-02   -0.82879E-02  3136   0.615E-01    0.507E-01
DAV:  20    -0.400234701606E+03   -0.19027E-02   -0.64891E-03  2664   0.210E-01    0.454E-01
DAV:  21    -0.400236446240E+03   -0.17446E-02   -0.61277E-02  3024   0.625E-01    0.332E-01
DAV:  22    -0.400235419452E+03    0.10268E-02   -0.69237E-03  2760   0.226E-01    0.140E-01
DAV:  23    -0.400236897184E+03   -0.14777E-02   -0.49158E-03  3024   0.150E-01    0.958E-02
DAV:  24    -0.400236970003E+03   -0.72819E-04   -0.12206E-03  3072   0.831E-02    0.823E-02
DAV:  25    -0.400237245556E+03   -0.27555E-03   -0.79295E-04  2408   0.876E-02    0.283E-02
DAV:  26    -0.400237653822E+03   -0.40827E-03   -0.42206E-04  2864   0.573E-02    0.461E-02
DAV:  27    -0.400237776859E+03   -0.12304E-03   -0.54373E-05  2520   0.174E-02    0.358E-02
DAV:  28    -0.400237896297E+03   -0.11944E-03   -0.13406E-04  2904   0.275E-02    0.202E-02
DAV:  29    -0.400237928988E+03   -0.32691E-04   -0.21506E-05  1824   0.155E-02    0.879E-03
DAV:  30    -0.400237976657E+03   -0.47669E-04   -0.23466E-05  2080   0.103E-02    0.103E-02
DAV:  31    -0.400237999916E+03   -0.23259E-04   -0.50345E-06  1328   0.555E-03    0.815E-03
DAV:  32    -0.400238006535E+03   -0.66189E-05   -0.19084E-06  1264   0.343E-03    0.760E-03
DAV:  33    -0.400238015884E+03   -0.93488E-05   -0.25631E-06  1256   0.523E-03    0.331E-03
DAV:  34    -0.400238021695E+03   -0.58115E-05   -0.11865E-06  1240   0.338E-03    0.193E-03
DAV:  35    -0.400238023817E+03   -0.21222E-05   -0.42962E-07  1224   0.182E-03
   1 F= -.40023802E+03 E0= -.40018351E+03  d E =-.109033E+00
 running on   16 total cores
 distrk:  each k-point on    8 cores,    2 groups
 distr:  one band on    4 cores,    2 groups
 using from now: INCAR     
 vasp.5.4.4.18Apr17-6-g9f103f2a35 (build Nov 27 2019 20:08:17) complex          
  
 POSCAR found type information on POSCAR  Ti
 POSCAR found :  1 types and      36 ions
 scaLAPACK will be used

 ----------------------------------------------------------------------------- 
|                                                                             |
|           W    W    AA    RRRRR   N    N  II  N    N   GGGG   !!!           |
|           W    W   A  A   R    R  NN   N  II  NN   N  G    G  !!!           |
|           W    W  A    A  R    R  N N  N  II  N N  N  G       !!!           |
|           W WW W  AAAAAA  RRRRR   N  N N  II  N  N N  G  GGG   !            |
|           WW  WW  A    A  R   R   N   NN  II  N   NN  G    G                |
|           W    W  A    A  R    R  N    N  II  N    N   GGGG   !!!           |
|                                                                             |
|      You have enabled k-point parallelism (KPAR>1).                         |
|      This developmental code was originally  written by Paul Kent at ORNL,  |
|      and carefully double checked in Vienna.                                |
|      GW as well as linear response parallelism added by Martijn Marsman     |
|      and Georg Kresse.                                                      |
|      Carefully verify results versus KPAR=1.                                |
|      Report problems to Paul Kent and Vienna.                               |
|                                                                             |
 ----------------------------------------------------------------------------- 

 LDA part: xc-table for Pade appr. of Perdew
 POSCAR found type information on POSCAR  Ti
 POSCAR found :  1 types and      36 ions
 POSCAR, INCAR and KPOINTS ok, starting setup
 FFT: planning ...
 WAVECAR not read
 WARNING: random wavefunctions but no delay for mixing, default for NELMDL
 entering main loop
       N       E                     dE             d eps       ncg     rms          rms(c)
DAV:   1     0.723649929099E+03    0.72365E+03   -0.37802E+04  1288   0.979E+02
DAV:   2    -0.208120546912E+03   -0.93177E+03   -0.88484E+03  1428   0.232E+02
DAV:   3    -0.323130623530E+03   -0.11501E+03   -0.10897E+03  1964   0.823E+01
DAV:   4    -0.330722960786E+03   -0.75923E+01   -0.71453E+01  1936   0.245E+01
DAV:   5    -0.331141482614E+03   -0.41852E+00   -0.40877E+00  1992   0.503E+00    0.782E+01
DAV:   6    -0.510836122463E+03   -0.17969E+03   -0.30159E+03  2416   0.100E+02    0.100E+02
DAV:   7    -0.307571558626E+03    0.20326E+03   -0.47993E+03  2236   0.193E+02    0.386E+01
DAV:   8    -0.285362049178E+03    0.22210E+02   -0.65052E+02  1860   0.884E+01    0.378E+01
DAV:   9    -0.274407260258E+03    0.10955E+02   -0.60340E+01  2072   0.238E+01    0.330E+01
DAV:  10    -0.266920877379E+03    0.74864E+01   -0.97086E+00  2120   0.859E+00    0.260E+01
DAV:  11    -0.263088283992E+03    0.38326E+01   -0.60297E+00  2012   0.727E+00    0.210E+01
DAV:  12    -0.260206091472E+03    0.28822E+01   -0.13643E+01  1984   0.110E+01    0.165E+01
DAV:  13    -0.257922665383E+03    0.22834E+01   -0.16688E+01  2072   0.121E+01    0.124E+01
DAV:  14    -0.256536759753E+03    0.13859E+01   -0.57448E+00  2104   0.499E+00    0.674E+00
DAV:  15    -0.256706775466E+03   -0.17002E+00   -0.79414E-01  2280   0.165E+00    0.734E+00
DAV:  16    -0.256916650775E+03   -0.20988E+00   -0.17290E+00  2008   0.349E+00    0.797E+00
DAV:  17    -0.255935153204E+03    0.98150E+00   -0.38394E+00  1936   0.579E+00    0.330E+00
DAV:  18    -0.255798072999E+03    0.13708E+00   -0.70830E-01  2216   0.186E+00    0.116E+00
DAV:  19    -0.255798925757E+03   -0.85276E-03   -0.73671E-02  2112   0.695E-01    0.111E+00
DAV:  20    -0.255799851808E+03   -0.92605E-03   -0.12485E-02  2184   0.325E-01    0.110E+00
DAV:  21    -0.255791554808E+03    0.82970E-02   -0.22177E-01  1880   0.118E+00    0.542E-01
DAV:  22    -0.255791716479E+03   -0.16167E-03   -0.10359E-02  2072   0.252E-01    0.429E-01
DAV:  23    -0.255792586433E+03   -0.86995E-03   -0.22726E-02  1992   0.416E-01    0.235E-01
DAV:  24    -0.255793427127E+03   -0.84069E-03   -0.59875E-03  2024   0.240E-01    0.954E-02
DAV:  25    -0.255794454909E+03   -0.10278E-02   -0.13792E-03  1912   0.991E-02    0.110E-01
DAV:  26    -0.255795785686E+03   -0.13308E-02   -0.59140E-04  1656   0.792E-02    0.111E-01
DAV:  27    -0.255796003977E+03   -0.21829E-03   -0.49482E-04  1984   0.606E-02    0.564E-02
DAV:  28    -0.255796280335E+03   -0.27636E-03   -0.17884E-04  1936   0.357E-02    0.615E-02
DAV:  29    -0.255796468584E+03   -0.18825E-03   -0.17207E-04  1840   0.369E-02    0.269E-02
DAV:  30    -0.255796663560E+03   -0.19498E-03   -0.24853E-04  2064   0.455E-02    0.319E-02
DAV:  31    -0.255796715185E+03   -0.51626E-04   -0.11200E-05  1192   0.993E-03    0.238E-02
DAV:  32    -0.255796769033E+03   -0.53848E-04   -0.43183E-05  1632   0.156E-02    0.377E-03
DAV:  33    -0.255796794116E+03   -0.25083E-04   -0.20314E-06   872   0.470E-03    0.320E-03
DAV:  34    -0.255796814195E+03   -0.20079E-04   -0.20469E-06   832   0.420E-03    0.336E-03
DAV:  35    -0.255796822434E+03   -0.82395E-05   -0.95967E-07   824   0.349E-03    0.177E-03
DAV:  36    -0.255796824884E+03   -0.24496E-05   -0.49401E-07   824   0.171E-03
   1 F= -.25579682E+03 E0= -.25572804E+03  d E =-.137569E+00
 running on   16 total cores
 distrk:  each k-point on    8 cores,    2 groups
 distr:  one band on    4 cores,    2 groups
 using from now: INCAR     
 vasp.5.4.4.18Apr17-6-g9f103f2a35 (build Nov 27 2019 20:08:17) complex          
  
 POSCAR found type information on POSCAR  Ti
 POSCAR found :  1 types and      90 ions
 scaLAPACK will be used

 ----------------------------------------------------------------------------- 
|                                                                             |
|           W    W    AA    RRRRR   N    N  II  N    N   GGGG   !!!           |
|           W    W   A  A   R    R  NN   N  II  NN   N  G    G  !!!           |
|           W    W  A    A  R    R  N N  N  II  N N  N  G       !!!           |
|           W WW W  AAAAAA  RRRRR   N  N N  II  N  N N  G  GGG   !            |
|           WW  WW  A    A  R   R   N   NN  II  N   NN  G    G                |
|           W    W  A    A  R    R  N    N  II  N    N   GGGG   !!!           |
|                                                                             |
|      You have enabled k-point parallelism (KPAR>1).                         |
|      This developmental code was originally  written by Paul Kent at ORNL,  |
|      and carefully double checked in Vienna.                                |
|      GW as well as linear response parallelism added by Martijn Marsman     |
|      and Georg Kresse.                                                      |
|      Carefully verify results versus KPAR=1.                                |
|      Report problems to Paul Kent and Vienna.                               |
|                                                                             |
 ----------------------------------------------------------------------------- 

 LDA part: xc-table for Pade appr. of Perdew
 POSCAR found type information on POSCAR  Ti
 POSCAR found :  1 types and      90 ions
 POSCAR, INCAR and KPOINTS ok, starting setup
 FFT: planning ...
 WAVECAR not read
 WARNING: random wavefunctions but no delay for mixing, default for NELMDL
 entering main loop
       N       E                     dE             d eps       ncg     rms          rms(c)
DAV:   1     0.170581496660E+04    0.17058E+04   -0.10310E+05  3164   0.115E+03
DAV:   2    -0.459722837991E+03   -0.21655E+04   -0.20932E+04  3164   0.256E+02
DAV:   3    -0.792468867897E+03   -0.33275E+03   -0.31484E+03  4920   0.909E+01
DAV:   4    -0.820745937292E+03   -0.28277E+02   -0.26912E+02  4888   0.286E+01
DAV:   5    -0.822339410762E+03   -0.15935E+01   -0.15385E+01  5008   0.583E+00    0.117E+02
DAV:   6    -0.378270572011E+04   -0.29604E+04   -0.33635E+04  5296   0.970E+01    0.124E+02
DAV:   7    -0.379461473139E+04   -0.11909E+02   -0.59818E+04  6306   0.105E+02    0.238E+02
DAV:   8    -0.572838106742E+03    0.32218E+04   -0.93582E+03  4644   0.216E+02    0.626E+01
DAV:   9    -0.990748023766E+03   -0.41791E+03   -0.74338E+03  5880   0.113E+02    0.100E+02
DAV:  10    -0.725481168926E+03    0.26527E+03   -0.29507E+03  5194   0.129E+02    0.488E+01
DAV:  11    -0.754381385278E+03   -0.28900E+02   -0.10519E+03  5800   0.694E+01    0.578E+01
DAV:  12    -0.689050958850E+03    0.65330E+02   -0.39610E+02  5784   0.480E+01    0.376E+01
DAV:  13    -0.679525346410E+03    0.95256E+01   -0.17301E+02  5416   0.250E+01    0.312E+01
DAV:  14    -0.685129389653E+03   -0.56040E+01   -0.11595E+02  5760   0.200E+01    0.336E+01
DAV:  15    -0.674566467320E+03    0.10563E+02   -0.54589E+01  5448   0.162E+01    0.250E+01
DAV:  16    -0.671975522026E+03    0.25909E+01   -0.23012E+01  5464   0.826E+00    0.220E+01
DAV:  17    -0.665105181913E+03    0.68703E+01   -0.14966E+01  5096   0.580E+00    0.174E+01
DAV:  18    -0.661777246902E+03    0.33279E+01   -0.60473E+00  5024   0.428E+00    0.144E+01
DAV:  19    -0.660638613094E+03    0.11386E+01   -0.26429E+00  4824   0.275E+00    0.125E+01
DAV:  20    -0.661672682060E+03   -0.10341E+01   -0.50163E+00  5032   0.219E+00    0.165E+01
DAV:  21    -0.659395367457E+03    0.22773E+01   -0.49589E+00  5118   0.196E+00    0.108E+01
DAV:  22    -0.658321838846E+03    0.10735E+01   -0.12931E+00  4792   0.219E+00    0.933E+00
DAV:  23    -0.657820429172E+03    0.50141E+00   -0.13674E+00  4616   0.169E+00    0.791E+00
DAV:  24    -0.657468978941E+03    0.35145E+00   -0.49650E-01  4632   0.141E+00    0.711E+00
DAV:  25    -0.656824747668E+03    0.64423E+00   -0.69584E-01  4568   0.180E+00    0.523E+00
DAV:  26    -0.656517535200E+03    0.30721E+00   -0.34129E-01  4976   0.112E+00    0.397E+00
DAV:  27    -0.656297129576E+03    0.22041E+00   -0.34473E-01  4696   0.120E+00    0.294E+00
DAV:  28    -0.656196336131E+03    0.10079E+00   -0.23759E-01  4760   0.946E-01    0.211E+00
DAV:  29    -0.656150731825E+03    0.45604E-01   -0.85259E-02  4784   0.551E-01    0.163E+00
DAV:  30    -0.656137200725E+03    0.13531E-01   -0.11080E-01  4816   0.531E-01    0.138E+00
DAV:  31    -0.656142033624E+03   -0.48329E-02   -0.93453E-02  4744   0.435E-01    0.149E+00
DAV:  32    -0.656142717306E+03   -0.68368E-03   -0.63514E-02  4952   0.463E-01    0.164E+00
DAV:  33    -0.656117829128E+03    0.24888E-01   -0.28492E-02  4960   0.264E-01    0.101E+00
DAV:  34    -0.656108150018E+03    0.96791E-02   -0.17996E-02  5040   0.178E-01    0.508E-01
DAV:  35    -0.656120811914E+03   -0.12662E-01   -0.25788E-02  5120   0.177E-01    0.959E-01
DAV:  36    -0.656109132474E+03    0.11679E-01   -0.13513E-02  4904   0.103E-01    0.464E-01
DAV:  37    -0.656108927308E+03    0.20517E-03   -0.18730E-03  4944   0.686E-02    0.402E-01
DAV:  38    -0.656110607268E+03   -0.16800E-02   -0.12252E-03  4704   0.618E-02    0.459E-01
DAV:  39    -0.656109534954E+03    0.10723E-02   -0.58336E-04  4792   0.502E-02    0.333E-01
DAV:  40    -0.656109056023E+03    0.47893E-03   -0.62658E-04  4920   0.419E-02    0.240E-01
DAV:  41    -0.656108314472E+03    0.74155E-03   -0.15808E-03  4992   0.351E-02    0.665E-02
DAV:  42    -0.656108560279E+03   -0.24581E-03   -0.22073E-04  4664   0.246E-02    0.890E-02
DAV:  43    -0.656108550927E+03    0.93520E-05   -0.38386E-04  4944   0.326E-02    0.475E-02
DAV:  44    -0.656108572593E+03   -0.21666E-04   -0.13898E-04  4536   0.224E-02    0.297E-02
DAV:  45    -0.656108598744E+03   -0.26151E-04   -0.84560E-05  4800   0.169E-02    0.378E-02
DAV:  46    -0.656108596419E+03    0.23248E-05   -0.25752E-05  3560   0.105E-02
   1 F= -.65610860E+03 E0= -.65598496E+03  d E =-.247268E+00

DISTANCE=0.500
E_alpha= -400.245817  E_beta= -255.796833  E_total= -338.847347 
W_seq=317.195303

DISTANCE=1.000
E_alpha= -400.240046  E_beta= -255.797309  E_total= -610.912286 
W_seq=45.125069

DISTANCE=1.500
E_alpha= -400.239309  E_beta= -255.797735  E_total= -674.993413 
W_seq=-18.956369

DISTANCE=2.000
E_alpha= -400.238314  E_beta= -255.797314  E_total= -682.887132 
W_seq=-26.851504

DISTANCE=2.500
E_alpha= -400.238869  E_beta= -255.797511  E_total= -679.438882 
W_seq=-23.402502

DISTANCE=3.000
E_alpha= -400.238513  E_beta= -255.797002  E_total=
W_seq=656.035515

DISTANCE=3.500
E_alpha= -400.238721  E_beta= -255.796999  E_total= -667.088226 
W_seq=-11.052506

DISTANCE=4.000
E_alpha= -400.237750  E_beta= -255.796996  E_total= -662.671881 
W_seq=-6.637135

DISTANCE=4.500
E_alpha= -400.238296  E_beta= -255.797093  E_total= -659.817524 
W_seq=-3.782135

DISTANCE=5.000
E_alpha= -400.237833  E_beta= -255.797309  E_total= -658.093624 
W_seq=-2.058482

DISTANCE=5.500
E_alpha= -400.238155  E_beta= -255.797060  E_total= -657.115134 
W_seq=-1.079919

DISTANCE=6.000
E_alpha= -400.237814  E_beta= -255.797155  E_total= -656.600343 
W_seq=-0.565374

DISTANCE=6.500
E_alpha= -400.238540  E_beta= -255.797291  E_total= -656.353448 
W_seq=-0.317617

DISTANCE=7.000
E_alpha= -400.238517  E_beta= -255.797468  E_total= -656.240579 
W_seq=-0.204594

DISTANCE=7.500
E_alpha= -400.238335  E_beta= -255.797299  E_total= -656.186115 
W_seq=-0.150481

DISTANCE=8.000
E_alpha= -400.238197  E_beta= -255.797255  E_total= -656.156672 
W_seq=-0.121220

DISTANCE=8.500
E_alpha= -400.238111  E_beta= -255.797049  E_total= -656.138146 
W_seq=-0.102986

DISTANCE=9.000
E_alpha= -400.237547  E_beta= -255.797118  E_total= -656.125071 
W_seq=-0.090406

DISTANCE=9.500
E_alpha= -400.238158  E_beta= -255.797201  E_total= -656.116440 
W_seq=-0.081081

DISTANCE=10.000
E_alpha= -400.238024  E_beta= -255.796825  E_total= -656.108596 
W_seq=-0.073747

