Distance=0.500
 running on   16 total cores
 distrk:  each k-point on    8 cores,    2 groups
 distr:  one band on    4 cores,    2 groups
 using from now: INCAR     
 vasp.5.4.4.18Apr17-6-g9f103f2a35 (build Nov 27 2019 20:08:17) complex          
  
 POSCAR found type information on POSCAR  Ti
 POSCAR found :  1 types and      32 ions
 scaLAPACK will be used

 ----------------------------------------------------------------------------- 
|                                                                             |
|           W    W    AA    RRRRR   N    N  II  N    N   GGGG   !!!           |
|           W    W   A  A   R    R  NN   N  II  NN   N  G    G  !!!           |
|           W    W  A    A  R    R  N N  N  II  N N  N  G       !!!           |
|           W WW W  AAAAAA  RRRRR   N  N N  II  N  N N  G  GGG   !            |
|           WW  WW  A    A  R   R   N   NN  II  N   NN  G    G                |
|           W    W  A    A  R    R  N    N  II  N    N   GGGG   !!!           |
|                                                                             |
|      You have enabled k-point parallelism (KPAR>1).                         |
|      This developmental code was originally  written by Paul Kent at ORNL,  |
|      and carefully double checked in Vienna.                                |
|      GW as well as linear response parallelism added by Martijn Marsman     |
|      and Georg Kresse.                                                      |
|      Carefully verify results versus KPAR=1.                                |
|      Report problems to Paul Kent and Vienna.                               |
|                                                                             |
 ----------------------------------------------------------------------------- 

 LDA part: xc-table for Pade appr. of Perdew
 POSCAR found type information on POSCAR  Ti
 POSCAR found :  1 types and      32 ions
 POSCAR, INCAR and KPOINTS ok, starting setup
 FFT: planning ...
 WAVECAR not read
 WARNING: random wavefunctions but no delay for mixing, default for NELMDL
 entering main loop
       N       E                     dE             d eps       ncg     rms          rms(c)
DAV:   1     0.571888290475E+03    0.57189E+03   -0.36379E+04  1968   0.112E+03
DAV:   2    -0.167578927973E+03   -0.73947E+03   -0.71230E+03  1968   0.246E+02
DAV:   3    -0.277816401109E+03   -0.11024E+03   -0.10421E+03  3056   0.860E+01
DAV:   4    -0.286602496071E+03   -0.87861E+01   -0.81865E+01  3040   0.258E+01
DAV:   5    -0.287120682600E+03   -0.51819E+00   -0.49317E+00  3248   0.497E+00    0.670E+01
DAV:   6    -0.431253722778E+03   -0.14413E+03   -0.24095E+03  3672   0.975E+01    0.851E+01
DAV:   7    -0.244904095891E+03    0.18635E+03   -0.24329E+03  3432   0.152E+02    0.296E+01
DAV:   8    -0.256790706686E+03   -0.11887E+02   -0.55748E+02  3068   0.711E+01    0.324E+01
DAV:   9    -0.235684945754E+03    0.21106E+02   -0.11579E+02  3022   0.330E+01    0.193E+01
DAV:  10    -0.235204267433E+03    0.48068E+00   -0.12424E+01  3248   0.793E+00    0.171E+01
DAV:  11    -0.237070673183E+03   -0.18664E+01   -0.36720E+00  3264   0.475E+00    0.198E+01
DAV:  12    -0.231327631663E+03    0.57430E+01   -0.13662E+01  2474   0.149E+01    0.807E+00
DAV:  13    -0.230277517232E+03    0.10501E+01   -0.46597E+00  3240   0.657E+00    0.479E+00
DAV:  14    -0.230186340929E+03    0.91176E-01   -0.12378E+00  3144   0.317E+00    0.392E+00
DAV:  15    -0.230309572868E+03   -0.12323E+00   -0.97779E-01  3206   0.330E+00    0.464E+00
DAV:  16    -0.229995726721E+03    0.31385E+00   -0.17838E+00  3104   0.356E+00    0.125E+00
DAV:  17    -0.230002638220E+03   -0.69115E-02   -0.12224E-01  3016   0.113E+00    0.690E-01
DAV:  18    -0.230001312169E+03    0.13261E-02   -0.22941E-02  3128   0.444E-01    0.351E-01
DAV:  19    -0.230006488793E+03   -0.51766E-02   -0.12904E-02  2888   0.303E-01    0.981E-02
DAV:  20    -0.230011068875E+03   -0.45801E-02   -0.74858E-03  3112   0.234E-01    0.206E-01
DAV:  21    -0.230011949651E+03   -0.88078E-03   -0.87877E-03  3040   0.260E-01    0.121E-01
DAV:  22    -0.230012020642E+03   -0.70991E-04   -0.17926E-03  3016   0.115E-01    0.495E-02
DAV:  23    -0.230012081731E+03   -0.61089E-04   -0.18116E-04  2480   0.490E-02    0.300E-02
DAV:  24    -0.230012082112E+03   -0.38127E-06   -0.56917E-05  2904   0.214E-02    0.139E-02
DAV:  25    -0.230012083237E+03   -0.11248E-05   -0.10972E-05  1784   0.126E-02
   1 F= -.23001208E+03 E0= -.22995419E+03  d E =-.115794E+00
 running on   16 total cores
 distrk:  each k-point on    8 cores,    2 groups
 distr:  one band on    4 cores,    2 groups
 using from now: INCAR     
 vasp.5.4.4.18Apr17-6-g9f103f2a35 (build Nov 27 2019 20:08:17) complex          
  
 POSCAR found type information on POSCAR  Ti
 POSCAR found :  1 types and      36 ions
 scaLAPACK will be used

 ----------------------------------------------------------------------------- 
|                                                                             |
|           W    W    AA    RRRRR   N    N  II  N    N   GGGG   !!!           |
|           W    W   A  A   R    R  NN   N  II  NN   N  G    G  !!!           |
|           W    W  A    A  R    R  N N  N  II  N N  N  G       !!!           |
|           W WW W  AAAAAA  RRRRR   N  N N  II  N  N N  G  GGG   !            |
|           WW  WW  A    A  R   R   N   NN  II  N   NN  G    G                |
|           W    W  A    A  R    R  N    N  II  N    N   GGGG   !!!           |
|                                                                             |
|      You have enabled k-point parallelism (KPAR>1).                         |
|      This developmental code was originally  written by Paul Kent at ORNL,  |
|      and carefully double checked in Vienna.                                |
|      GW as well as linear response parallelism added by Martijn Marsman     |
|      and Georg Kresse.                                                      |
|      Carefully verify results versus KPAR=1.                                |
|      Report problems to Paul Kent and Vienna.                               |
|                                                                             |
 ----------------------------------------------------------------------------- 

 LDA part: xc-table for Pade appr. of Perdew
 POSCAR found type information on POSCAR  Ti
 POSCAR found :  1 types and      36 ions
 POSCAR, INCAR and KPOINTS ok, starting setup
 FFT: planning ...
 WAVECAR not read
 WARNING: random wavefunctions but no delay for mixing, default for NELMDL
 entering main loop
       N       E                     dE             d eps       ncg     rms          rms(c)
DAV:   1     0.707052213156E+03    0.70705E+03   -0.41976E+04  2208   0.115E+03
DAV:   2    -0.192887041151E+03   -0.89994E+03   -0.86505E+03  2208   0.256E+02
DAV:   3    -0.325496176832E+03   -0.13261E+03   -0.12185E+03  3208   0.940E+01
DAV:   4    -0.334297059632E+03   -0.88009E+01   -0.81569E+01  3152   0.284E+01
DAV:   5    -0.334739327297E+03   -0.44227E+00   -0.42079E+00  3552   0.499E+00    0.824E+01
DAV:   6    -0.544082315637E+03   -0.20934E+03   -0.30114E+03  4160   0.969E+01    0.111E+02
DAV:   7    -0.284228387554E+03    0.25985E+03   -0.42317E+03  4088   0.161E+02    0.353E+01
DAV:   8    -0.279690261793E+03    0.45381E+01   -0.47575E+02  3252   0.732E+01    0.362E+01
DAV:   9    -0.274436248962E+03    0.52540E+01   -0.35879E+01  3640   0.142E+01    0.287E+01
DAV:  10    -0.276308715798E+03   -0.18725E+01   -0.35194E+00  3568   0.413E+00    0.308E+01
DAV:  11    -0.266451509380E+03    0.98572E+01   -0.14148E+01  3080   0.132E+01    0.162E+01
DAV:  12    -0.264379094297E+03    0.20724E+01   -0.30766E+00  3520   0.537E+00    0.111E+01
DAV:  13    -0.262445834317E+03    0.19333E+01   -0.76904E+00  2932   0.996E+00    0.198E+00
DAV:  14    -0.262433868142E+03    0.11966E-01   -0.66903E-01  3496   0.217E+00    0.158E+00
DAV:  15    -0.262437722444E+03   -0.38543E-02   -0.58124E-02  3136   0.811E-01    0.901E-01
DAV:  16    -0.262471893504E+03   -0.34171E-01   -0.26223E-01  3432   0.142E+00    0.127E+00
DAV:  17    -0.262451400346E+03    0.20493E-01   -0.12622E-01  3268   0.110E+00    0.274E-01
DAV:  18    -0.262463677163E+03   -0.12277E-01   -0.66040E-02  2984   0.832E-01    0.611E-01
DAV:  19    -0.262464651238E+03   -0.97407E-03   -0.11224E-02  2504   0.330E-01    0.422E-01
DAV:  20    -0.262463024663E+03    0.16266E-02   -0.33418E-03  3120   0.204E-01    0.248E-01
DAV:  21    -0.262462186664E+03    0.83800E-03   -0.53503E-03  3448   0.212E-01    0.411E-02
DAV:  22    -0.262462198237E+03   -0.11573E-04   -0.30939E-04  3160   0.614E-02    0.238E-02
DAV:  23    -0.262462214075E+03   -0.15838E-04   -0.36783E-05  2380   0.207E-02    0.647E-03
DAV:  24    -0.262462215682E+03   -0.16070E-05   -0.71154E-06  1768   0.942E-03
   1 F= -.26246222E+03 E0= -.26240966E+03  d E =-.105116E+00
 running on   16 total cores
 distrk:  each k-point on    8 cores,    2 groups
 distr:  one band on    4 cores,    2 groups
 using from now: INCAR     
 vasp.5.4.4.18Apr17-6-g9f103f2a35 (build Nov 27 2019 20:08:17) complex          
  
 POSCAR found type information on POSCAR  Ti
 POSCAR found :  1 types and      68 ions
 scaLAPACK will be used

 ----------------------------------------------------------------------------- 
|                                                                             |
|           W    W    AA    RRRRR   N    N  II  N    N   GGGG   !!!           |
|           W    W   A  A   R    R  NN   N  II  NN   N  G    G  !!!           |
|           W    W  A    A  R    R  N N  N  II  N N  N  G       !!!           |
|           W WW W  AAAAAA  RRRRR   N  N N  II  N  N N  G  GGG   !            |
|           WW  WW  A    A  R   R   N   NN  II  N   NN  G    G                |
|           W    W  A    A  R    R  N    N  II  N    N   GGGG   !!!           |
|                                                                             |
|      You have enabled k-point parallelism (KPAR>1).                         |
|      This developmental code was originally  written by Paul Kent at ORNL,  |
|      and carefully double checked in Vienna.                                |
|      GW as well as linear response parallelism added by Martijn Marsman     |
|      and Georg Kresse.                                                      |
|      Carefully verify results versus KPAR=1.                                |
|      Report problems to Paul Kent and Vienna.                               |
|                                                                             |
 ----------------------------------------------------------------------------- 

 LDA part: xc-table for Pade appr. of Perdew
 POSCAR found type information on POSCAR  Ti
 POSCAR found :  1 types and      68 ions

 ----------------------------------------------------------------------------- 
|                                                                             |
|           W    W    AA    RRRRR   N    N  II  N    N   GGGG   !!!           |
|           W    W   A  A   R    R  NN   N  II  NN   N  G    G  !!!           |
|           W    W  A    A  R    R  N N  N  II  N N  N  G       !!!           |
|           W WW W  AAAAAA  RRRRR   N  N N  II  N  N N  G  GGG   !            |
|           WW  WW  A    A  R   R   N   NN  II  N   NN  G    G                |
|           W    W  A    A  R    R  N    N  II  N    N   GGGG   !!!           |
|                                                                             |
|      The distance between some ions is very small                           |
|      please check the nearest neigbor list in the OUTCAR file               |
|          I HOPE YOU KNOW, WHAT YOU ARE  DOING                               |
|                                                                             |
 ----------------------------------------------------------------------------- 

 POSCAR, INCAR and KPOINTS ok, starting setup
 FFT: planning ...
 WAVECAR not read
 WARNING: random wavefunctions but no delay for mixing, default for NELMDL
 entering main loop
       N       E                     dE             d eps       ncg     rms          rms(c)
DAV:   1     0.145772733851E+04    0.14577E+04   -0.81502E+04  4128   0.128E+03
DAV:   2    -0.301747576734E+03   -0.17595E+04   -0.17087E+04  4128   0.308E+02
DAV:   3    -0.533294781266E+03   -0.23155E+03   -0.21698E+03  5808   0.116E+02
DAV:   4    -0.551683438141E+03   -0.18389E+02   -0.17381E+02  5888   0.307E+01
DAV:   5    -0.552762066489E+03   -0.10786E+01   -0.10384E+01  6064   0.606E+00    0.136E+02
DAV:   6    -0.128442125963E+04   -0.73166E+03   -0.18968E+04  6112   0.408E+02    0.121E+02
DAV:   7    -0.593867697201E+03    0.69055E+03   -0.46316E+03  5984   0.230E+02    0.950E+01
DAV:   8    -0.432381190714E+03    0.16149E+03   -0.11306E+03  6856   0.119E+02    0.745E+01
DAV:   9    -0.393359784161E+03    0.39021E+02   -0.22425E+02  6912   0.403E+01    0.779E+01
DAV:  10    -0.493086613366E+03   -0.99727E+02   -0.14829E+02  7096   0.380E+01    0.101E+02
DAV:  11    -0.496192445619E+03   -0.31058E+01   -0.25064E+01  6480   0.132E+01    0.103E+02
DAV:  12    -0.489967281595E+03    0.62252E+01   -0.32239E+00  6984   0.480E+00    0.101E+02
DAV:  13    -0.476489527121E+03    0.13478E+02   -0.58271E+00  6880   0.696E+00    0.977E+01
DAV:  14    -0.320550409285E+03    0.15594E+03   -0.55719E+02  6744   0.645E+01    0.357E+01
DAV:  15    -0.339680317889E+03   -0.19130E+02   -0.42197E+02  7384   0.504E+01    0.660E+01
DAV:  16    -0.330847207882E+03    0.88331E+01   -0.12273E+02  6672   0.286E+01    0.572E+01
DAV:  17    -0.316356063514E+03    0.14491E+02   -0.37405E+01  7024   0.184E+01    0.444E+01
DAV:  18    -0.310833820264E+03    0.55222E+01   -0.14749E+01  6736   0.107E+01    0.354E+01
DAV:  19    -0.309837013734E+03    0.99681E+00   -0.26415E+00  6520   0.429E+00    0.320E+01
DAV:  20    -0.309106044891E+03    0.73097E+00   -0.20346E+00  6360   0.362E+00    0.270E+01
DAV:  21    -0.307765875328E+03    0.13402E+01   -0.60926E+00  6344   0.681E+00    0.186E+01
DAV:  22    -0.307950420242E+03   -0.18454E+00   -0.15454E+01  6608   0.113E+01    0.127E+01
DAV:  23    -0.307699428384E+03    0.25099E+00   -0.17325E+00  6040   0.379E+00    0.110E+01
DAV:  24    -0.307546897685E+03    0.15253E+00   -0.13281E-01  6224   0.104E+00    0.104E+01
DAV:  25    -0.306843729117E+03    0.70317E+00   -0.93544E-01  6488   0.255E+00    0.664E+00
DAV:  26    -0.306610021109E+03    0.23371E+00   -0.94750E-01  6696   0.242E+00    0.403E+00
DAV:  27    -0.306464750813E+03    0.14527E+00   -0.77770E-01  6656   0.241E+00    0.219E+00
DAV:  28    -0.306479432765E+03   -0.14682E-01   -0.14975E-01  6600   0.118E+00    0.250E+00
DAV:  29    -0.306491972434E+03   -0.12540E-01   -0.41486E-02  6584   0.516E-01    0.278E+00
DAV:  30    -0.306439803764E+03    0.52169E-01   -0.38380E-01  6496   0.183E+00    0.141E+00
DAV:  31    -0.306450198406E+03   -0.10395E-01   -0.11654E-01  6688   0.911E-01    0.151E+00
DAV:  32    -0.306432332623E+03    0.17866E-01   -0.34611E-02  6152   0.620E-01    0.886E-01
DAV:  33    -0.306426561235E+03    0.57714E-02   -0.24739E-02  6840   0.391E-01    0.541E-01
DAV:  34    -0.306425641665E+03    0.91957E-03   -0.11470E-02  6536   0.267E-01    0.438E-01
DAV:  35    -0.306425314338E+03    0.32733E-03   -0.22112E-03  6248   0.138E-01    0.290E-01
DAV:  36    -0.306425182891E+03    0.13145E-03   -0.49310E-04  6536   0.615E-02    0.237E-01
DAV:  37    -0.306425090709E+03    0.92183E-04   -0.36622E-04  6576   0.466E-02    0.177E-01
DAV:  38    -0.306425148675E+03   -0.57966E-04   -0.10794E-03  6648   0.992E-02    0.168E-01
DAV:  39    -0.306425029431E+03    0.11924E-03   -0.53675E-04  6776   0.712E-02    0.125E-01
DAV:  40    -0.306425027766E+03    0.16654E-05   -0.45963E-05  5536   0.213E-02
   1 F= -.30642503E+03 E0= -.30635783E+03  d E =-.134398E+00
Distance=1.000
 running on   16 total cores
 distrk:  each k-point on    8 cores,    2 groups
 distr:  one band on    4 cores,    2 groups
 using from now: INCAR     
 vasp.5.4.4.18Apr17-6-g9f103f2a35 (build Nov 27 2019 20:08:17) complex          
  
 POSCAR found type information on POSCAR  Ti
 POSCAR found :  1 types and      32 ions
 scaLAPACK will be used

 ----------------------------------------------------------------------------- 
|                                                                             |
|           W    W    AA    RRRRR   N    N  II  N    N   GGGG   !!!           |
|           W    W   A  A   R    R  NN   N  II  NN   N  G    G  !!!           |
|           W    W  A    A  R    R  N N  N  II  N N  N  G       !!!           |
|           W WW W  AAAAAA  RRRRR   N  N N  II  N  N N  G  GGG   !            |
|           WW  WW  A    A  R   R   N   NN  II  N   NN  G    G                |
|           W    W  A    A  R    R  N    N  II  N    N   GGGG   !!!           |
|                                                                             |
|      You have enabled k-point parallelism (KPAR>1).                         |
|      This developmental code was originally  written by Paul Kent at ORNL,  |
|      and carefully double checked in Vienna.                                |
|      GW as well as linear response parallelism added by Martijn Marsman     |
|      and Georg Kresse.                                                      |
|      Carefully verify results versus KPAR=1.                                |
|      Report problems to Paul Kent and Vienna.                               |
|                                                                             |
 ----------------------------------------------------------------------------- 

 LDA part: xc-table for Pade appr. of Perdew
 POSCAR found type information on POSCAR  Ti
 POSCAR found :  1 types and      32 ions
 POSCAR, INCAR and KPOINTS ok, starting setup
 FFT: planning ...
 WAVECAR not read
 WARNING: random wavefunctions but no delay for mixing, default for NELMDL
 entering main loop
       N       E                     dE             d eps       ncg     rms          rms(c)
DAV:   1     0.579856648971E+03    0.57986E+03   -0.36267E+04  1968   0.111E+03
DAV:   2    -0.166014058745E+03   -0.74587E+03   -0.71866E+03  1968   0.245E+02
DAV:   3    -0.277628314252E+03   -0.11161E+03   -0.10539E+03  3072   0.853E+01
DAV:   4    -0.286613049983E+03   -0.89847E+01   -0.83568E+01  3088   0.263E+01
DAV:   5    -0.287119048524E+03   -0.50600E+00   -0.48279E+00  3128   0.513E+00    0.670E+01
DAV:   6    -0.429633316847E+03   -0.14251E+03   -0.23943E+03  3696   0.973E+01    0.849E+01
DAV:   7    -0.246374778923E+03    0.18326E+03   -0.25040E+03  3424   0.153E+02    0.296E+01
DAV:   8    -0.255432743293E+03   -0.90580E+01   -0.53240E+02  3112   0.698E+01    0.319E+01
DAV:   9    -0.235891468798E+03    0.19541E+02   -0.10886E+02  3034   0.319E+01    0.195E+01
DAV:  10    -0.235415344202E+03    0.47612E+00   -0.11581E+01  3264   0.769E+00    0.174E+01
DAV:  11    -0.237174291345E+03   -0.17589E+01   -0.41241E+00  3264   0.493E+00    0.198E+01
DAV:  12    -0.233271571872E+03    0.39027E+01   -0.64854E+00  2726   0.975E+00    0.124E+01
DAV:  13    -0.230515084655E+03    0.27565E+01   -0.78484E+00  3012   0.102E+01    0.587E+00
DAV:  14    -0.230226390132E+03    0.28869E+00   -0.22825E+00  3264   0.383E+00    0.422E+00
DAV:  15    -0.230320807375E+03   -0.94417E-01   -0.10616E+00  2966   0.344E+00    0.490E+00
DAV:  16    -0.230017655061E+03    0.30315E+00   -0.25476E+00  3062   0.413E+00    0.182E+00
DAV:  17    -0.230025311500E+03   -0.76564E-02   -0.16881E-01  3040   0.135E+00    0.139E+00
DAV:  18    -0.229999920785E+03    0.25391E-01   -0.17238E-01  3048   0.117E+00    0.384E-01
DAV:  19    -0.230002591867E+03   -0.26711E-02   -0.24682E-02  3240   0.373E-01    0.227E-01
DAV:  20    -0.230006857245E+03   -0.42654E-02   -0.17500E-02  2912   0.459E-01    0.244E-01
DAV:  21    -0.230008742458E+03   -0.18852E-02   -0.79520E-03  2888   0.286E-01    0.153E-01
DAV:  22    -0.230009711772E+03   -0.96931E-03   -0.26586E-03  2816   0.147E-01    0.499E-02
DAV:  23    -0.230009998663E+03   -0.28689E-03   -0.38572E-04  2712   0.516E-02    0.481E-02
DAV:  24    -0.230009993511E+03    0.51523E-05   -0.12784E-04  3016   0.332E-02    0.195E-02
DAV:  25    -0.230009994620E+03   -0.11098E-05   -0.47519E-05  2600   0.211E-02
   1 F= -.23000999E+03 E0= -.22995216E+03  d E =-.115666E+00
 running on   16 total cores
 distrk:  each k-point on    8 cores,    2 groups
 distr:  one band on    4 cores,    2 groups
 using from now: INCAR     
 vasp.5.4.4.18Apr17-6-g9f103f2a35 (build Nov 27 2019 20:08:17) complex          
  
 POSCAR found type information on POSCAR  Ti
 POSCAR found :  1 types and      36 ions
 scaLAPACK will be used

 ----------------------------------------------------------------------------- 
|                                                                             |
|           W    W    AA    RRRRR   N    N  II  N    N   GGGG   !!!           |
|           W    W   A  A   R    R  NN   N  II  NN   N  G    G  !!!           |
|           W    W  A    A  R    R  N N  N  II  N N  N  G       !!!           |
|           W WW W  AAAAAA  RRRRR   N  N N  II  N  N N  G  GGG   !            |
|           WW  WW  A    A  R   R   N   NN  II  N   NN  G    G                |
|           W    W  A    A  R    R  N    N  II  N    N   GGGG   !!!           |
|                                                                             |
|      You have enabled k-point parallelism (KPAR>1).                         |
|      This developmental code was originally  written by Paul Kent at ORNL,  |
|      and carefully double checked in Vienna.                                |
|      GW as well as linear response parallelism added by Martijn Marsman     |
|      and Georg Kresse.                                                      |
|      Carefully verify results versus KPAR=1.                                |
|      Report problems to Paul Kent and Vienna.                               |
|                                                                             |
 ----------------------------------------------------------------------------- 

 LDA part: xc-table for Pade appr. of Perdew
 POSCAR found type information on POSCAR  Ti
 POSCAR found :  1 types and      36 ions
 POSCAR, INCAR and KPOINTS ok, starting setup
 FFT: planning ...
 WAVECAR not read
 WARNING: random wavefunctions but no delay for mixing, default for NELMDL
 entering main loop
       N       E                     dE             d eps       ncg     rms          rms(c)
DAV:   1     0.719054616885E+03    0.71905E+03   -0.41884E+04  2208   0.114E+03
DAV:   2    -0.192557133991E+03   -0.91161E+03   -0.87517E+03  2208   0.254E+02
DAV:   3    -0.325206828316E+03   -0.13265E+03   -0.12204E+03  3192   0.927E+01
DAV:   4    -0.334278357002E+03   -0.90715E+01   -0.83900E+01  3176   0.288E+01
DAV:   5    -0.334745088618E+03   -0.46673E+00   -0.44587E+00  3536   0.527E+00    0.824E+01
DAV:   6    -0.543463876122E+03   -0.20872E+03   -0.30019E+03  4156   0.966E+01    0.111E+02
DAV:   7    -0.287113757926E+03    0.25635E+03   -0.43414E+03  4080   0.163E+02    0.360E+01
DAV:   8    -0.280137963682E+03    0.69758E+01   -0.48718E+02  3228   0.744E+01    0.365E+01
DAV:   9    -0.274966822745E+03    0.51711E+01   -0.35298E+01  3696   0.138E+01    0.293E+01
DAV:  10    -0.277244761828E+03   -0.22779E+01   -0.36676E+00  3576   0.431E+00    0.317E+01
DAV:  11    -0.265242364600E+03    0.12002E+02   -0.22327E+01  3148   0.163E+01    0.132E+01
DAV:  12    -0.264218771322E+03    0.10236E+01   -0.17589E+00  3536   0.400E+00    0.104E+01
DAV:  13    -0.262494314741E+03    0.17245E+01   -0.62410E+00  2976   0.890E+00    0.258E+00
DAV:  14    -0.262444328131E+03    0.49987E-01   -0.75856E-01  3416   0.273E+00    0.180E+00
DAV:  15    -0.262442301196E+03    0.20269E-02   -0.68419E-02  3516   0.803E-01    0.118E+00
DAV:  16    -0.262451962579E+03   -0.96614E-02   -0.63636E-02  3408   0.808E-01    0.705E-01
DAV:  17    -0.262452344307E+03   -0.38173E-03   -0.92264E-02  3472   0.820E-01    0.673E-01
DAV:  18    -0.262470069234E+03   -0.17725E-01   -0.26466E-01  3192   0.163E+00    0.101E+00
DAV:  19    -0.262467789929E+03    0.22793E-02   -0.10154E-02  2872   0.277E-01    0.796E-01
DAV:  20    -0.262459462519E+03    0.83274E-02   -0.34310E-02  2928   0.639E-01    0.171E-01
DAV:  21    -0.262459779914E+03   -0.31740E-03   -0.48531E-03  3480   0.187E-01    0.404E-02
DAV:  22    -0.262459831602E+03   -0.51687E-04   -0.32415E-04  3224   0.583E-02    0.280E-02
DAV:  23    -0.262459873087E+03   -0.41485E-04   -0.77133E-05  2400   0.325E-02    0.786E-03
DAV:  24    -0.262459874132E+03   -0.10455E-05   -0.42471E-06  1792   0.643E-03
   1 F= -.26245987E+03 E0= -.26240740E+03  d E =-.104952E+00
 running on   16 total cores
 distrk:  each k-point on    8 cores,    2 groups
 distr:  one band on    4 cores,    2 groups
 using from now: INCAR     
 vasp.5.4.4.18Apr17-6-g9f103f2a35 (build Nov 27 2019 20:08:17) complex          
  
 POSCAR found type information on POSCAR  Ti
 POSCAR found :  1 types and      68 ions
 scaLAPACK will be used

 ----------------------------------------------------------------------------- 
|                                                                             |
|           W    W    AA    RRRRR   N    N  II  N    N   GGGG   !!!           |
|           W    W   A  A   R    R  NN   N  II  NN   N  G    G  !!!           |
|           W    W  A    A  R    R  N N  N  II  N N  N  G       !!!           |
|           W WW W  AAAAAA  RRRRR   N  N N  II  N  N N  G  GGG   !            |
|           WW  WW  A    A  R   R   N   NN  II  N   NN  G    G                |
|           W    W  A    A  R    R  N    N  II  N    N   GGGG   !!!           |
|                                                                             |
|      You have enabled k-point parallelism (KPAR>1).                         |
|      This developmental code was originally  written by Paul Kent at ORNL,  |
|      and carefully double checked in Vienna.                                |
|      GW as well as linear response parallelism added by Martijn Marsman     |
|      and Georg Kresse.                                                      |
|      Carefully verify results versus KPAR=1.                                |
|      Report problems to Paul Kent and Vienna.                               |
|                                                                             |
 ----------------------------------------------------------------------------- 

 LDA part: xc-table for Pade appr. of Perdew
 POSCAR found type information on POSCAR  Ti
 POSCAR found :  1 types and      68 ions

 ----------------------------------------------------------------------------- 
|                                                                             |
|           W    W    AA    RRRRR   N    N  II  N    N   GGGG   !!!           |
|           W    W   A  A   R    R  NN   N  II  NN   N  G    G  !!!           |
|           W    W  A    A  R    R  N N  N  II  N N  N  G       !!!           |
|           W WW W  AAAAAA  RRRRR   N  N N  II  N  N N  G  GGG   !            |
|           WW  WW  A    A  R   R   N   NN  II  N   NN  G    G                |
|           W    W  A    A  R    R  N    N  II  N    N   GGGG   !!!           |
|                                                                             |
|      The distance between some ions is very small                           |
|      please check the nearest neigbor list in the OUTCAR file               |
|          I HOPE YOU KNOW, WHAT YOU ARE  DOING                               |
|                                                                             |
 ----------------------------------------------------------------------------- 

 POSCAR, INCAR and KPOINTS ok, starting setup
 FFT: planning ...
 WAVECAR not read
 WARNING: random wavefunctions but no delay for mixing, default for NELMDL
 entering main loop
       N       E                     dE             d eps       ncg     rms          rms(c)
DAV:   1     0.130163892408E+04    0.13016E+04   -0.79543E+04  4128   0.126E+03
DAV:   2    -0.335241495567E+03   -0.16369E+04   -0.15878E+04  4128   0.288E+02
DAV:   3    -0.562364578747E+03   -0.22712E+03   -0.21197E+03  5816   0.107E+02
DAV:   4    -0.580658424017E+03   -0.18294E+02   -0.17079E+02  5960   0.294E+01
DAV:   5    -0.581559275689E+03   -0.90085E+00   -0.86659E+00  5984   0.513E+00    0.114E+02
DAV:   6    -0.118177122420E+04   -0.60021E+03   -0.92210E+03  8064   0.238E+02    0.138E+02
DAV:   7    -0.811238772179E+03    0.37053E+03   -0.96611E+03  7376   0.210E+02    0.975E+01
DAV:   8    -0.475280585441E+03    0.33596E+03   -0.29009E+03  6756   0.149E+02    0.529E+01
DAV:   9    -0.516163293791E+03   -0.40883E+02   -0.10112E+03  7304   0.963E+01    0.519E+01
DAV:  10    -0.506232083025E+03    0.99312E+01   -0.46961E+02  7420   0.704E+01    0.460E+01
DAV:  11    -0.475334520756E+03    0.30898E+02   -0.13169E+02  6768   0.319E+01    0.313E+01
DAV:  12    -0.470226494523E+03    0.51080E+01   -0.77226E+01  6648   0.237E+01    0.234E+01
DAV:  13    -0.463755188292E+03    0.64713E+01   -0.47416E+01  6456   0.204E+01    0.141E+01
DAV:  14    -0.461443931795E+03    0.23113E+01   -0.26080E+01  6296   0.132E+01    0.835E+00
DAV:  15    -0.461430598855E+03    0.13333E-01   -0.98731E+00  6248   0.831E+00    0.734E+00
DAV:  16    -0.461170870999E+03    0.25973E+00   -0.75816E+00  6216   0.699E+00    0.576E+00
DAV:  17    -0.461153453475E+03    0.17418E-01   -0.43452E+00  6376   0.552E+00    0.528E+00
DAV:  18    -0.460837300317E+03    0.31615E+00   -0.25733E+00  6224   0.419E+00    0.315E+00
DAV:  19    -0.460756685629E+03    0.80615E-01   -0.13714E+00  6296   0.300E+00    0.169E+00
DAV:  20    -0.460725776555E+03    0.30909E-01   -0.42890E-01  6136   0.166E+00    0.900E-01
DAV:  21    -0.460718804850E+03    0.69717E-02   -0.13579E-01  6328   0.973E-01    0.576E-01
DAV:  22    -0.460713869093E+03    0.49358E-02   -0.47933E-02  6328   0.602E-01    0.346E-01
DAV:  23    -0.460712643064E+03    0.12260E-02   -0.18698E-02  6344   0.366E-01    0.243E-01
DAV:  24    -0.460711820637E+03    0.82243E-03   -0.76130E-03  6344   0.229E-01    0.135E-01
DAV:  25    -0.460711794820E+03    0.25817E-04   -0.23225E-03  6224   0.131E-01    0.119E-01
DAV:  26    -0.460711677874E+03    0.11695E-03   -0.12723E-03  6232   0.863E-02    0.718E-02
DAV:  27    -0.460711709064E+03   -0.31190E-04   -0.69447E-04  6384   0.704E-02    0.565E-02
DAV:  28    -0.460711677139E+03    0.31925E-04   -0.28000E-04  6280   0.458E-02    0.317E-02
DAV:  29    -0.460711665651E+03    0.11488E-04   -0.71506E-05  5984   0.228E-02    0.165E-02
DAV:  30    -0.460711661098E+03    0.45528E-05   -0.29579E-05  4920   0.139E-02
   1 F= -.46071166E+03 E0= -.46064241E+03  d E =-.138507E+00
Distance=1.500
 running on   16 total cores
 distrk:  each k-point on    8 cores,    2 groups
 distr:  one band on    4 cores,    2 groups
 using from now: INCAR     
 vasp.5.4.4.18Apr17-6-g9f103f2a35 (build Nov 27 2019 20:08:17) complex          
  
 POSCAR found type information on POSCAR  Ti
 POSCAR found :  1 types and      32 ions
 scaLAPACK will be used

 ----------------------------------------------------------------------------- 
|                                                                             |
|           W    W    AA    RRRRR   N    N  II  N    N   GGGG   !!!           |
|           W    W   A  A   R    R  NN   N  II  NN   N  G    G  !!!           |
|           W    W  A    A  R    R  N N  N  II  N N  N  G       !!!           |
|           W WW W  AAAAAA  RRRRR   N  N N  II  N  N N  G  GGG   !            |
|           WW  WW  A    A  R   R   N   NN  II  N   NN  G    G                |
|           W    W  A    A  R    R  N    N  II  N    N   GGGG   !!!           |
|                                                                             |
|      You have enabled k-point parallelism (KPAR>1).                         |
|      This developmental code was originally  written by Paul Kent at ORNL,  |
|      and carefully double checked in Vienna.                                |
|      GW as well as linear response parallelism added by Martijn Marsman     |
|      and Georg Kresse.                                                      |
|      Carefully verify results versus KPAR=1.                                |
|      Report problems to Paul Kent and Vienna.                               |
|                                                                             |
 ----------------------------------------------------------------------------- 

 LDA part: xc-table for Pade appr. of Perdew
 POSCAR found type information on POSCAR  Ti
 POSCAR found :  1 types and      32 ions
 POSCAR, INCAR and KPOINTS ok, starting setup
 FFT: planning ...
 WAVECAR not read
 entering main loop
       N       E                     dE             d eps       ncg     rms          rms(c)
DAV:   1     0.586064790502E+03    0.58606E+03   -0.36194E+04  1968   0.110E+03
DAV:   2    -0.166486293693E+03   -0.75255E+03   -0.72437E+03  1968   0.243E+02
DAV:   3    -0.277463111600E+03   -0.11098E+03   -0.10475E+03  3072   0.843E+01
DAV:   4    -0.286540556451E+03   -0.90774E+01   -0.83975E+01  3080   0.260E+01
DAV:   5    -0.287112029420E+03   -0.57147E+00   -0.54412E+00  3160   0.531E+00    0.669E+01
DAV:   6    -0.426911895992E+03   -0.13980E+03   -0.23650E+03  3696   0.968E+01    0.844E+01
DAV:   7    -0.248236781801E+03    0.17868E+03   -0.25439E+03  3448   0.154E+02    0.296E+01
DAV:   8    -0.253703175969E+03   -0.54664E+01   -0.50067E+02  3048   0.678E+01    0.314E+01
DAV:   9    -0.236150465312E+03    0.17553E+02   -0.10354E+02  3044   0.307E+01    0.197E+01
DAV:  10    -0.235693506676E+03    0.45696E+00   -0.10641E+01  3264   0.744E+00    0.178E+01
DAV:  11    -0.237339967850E+03   -0.16465E+01   -0.40761E+00  3248   0.497E+00    0.200E+01
DAV:  12    -0.233599946683E+03    0.37400E+01   -0.64549E+00  2844   0.955E+00    0.131E+01
DAV:  13    -0.230560807577E+03    0.30391E+01   -0.84855E+00  2898   0.107E+01    0.623E+00
DAV:  14    -0.230262331172E+03    0.29848E+00   -0.22422E+00  3248   0.371E+00    0.452E+00
DAV:  15    -0.230325407449E+03   -0.63076E-01   -0.10429E+00  2918   0.348E+00    0.501E+00
DAV:  16    -0.230023645603E+03    0.30176E+00   -0.27924E+00  3062   0.422E+00    0.187E+00
DAV:  17    -0.230019190557E+03    0.44550E-02   -0.16566E-01  2952   0.128E+00    0.115E+00
DAV:  18    -0.230002223101E+03    0.16967E-01   -0.99732E-02  3088   0.879E-01    0.380E-01
DAV:  19    -0.230004264175E+03   -0.20411E-02   -0.24633E-02  3296   0.376E-01    0.262E-01
DAV:  20    -0.230006030393E+03   -0.17662E-02   -0.14434E-02  2912   0.430E-01    0.187E-01
DAV:  21    -0.230008132841E+03   -0.21024E-02   -0.52916E-03  2888   0.220E-01    0.150E-01
DAV:  22    -0.230009432422E+03   -0.12996E-02   -0.22294E-03  2872   0.133E-01    0.490E-02
DAV:  23    -0.230010206557E+03   -0.77414E-03   -0.47470E-04  2616   0.633E-02    0.573E-02
DAV:  24    -0.230010253729E+03   -0.47173E-04   -0.20101E-04  2728   0.488E-02    0.239E-02
DAV:  25    -0.230010253066E+03    0.66318E-06   -0.70744E-05  2800   0.257E-02    0.930E-03
DAV:  26    -0.230010253097E+03   -0.30937E-07   -0.97232E-06  1760   0.915E-03
   1 F= -.23001025E+03 E0= -.22995243E+03  d E =-.115650E+00
 running on   16 total cores
 distrk:  each k-point on    8 cores,    2 groups
 distr:  one band on    4 cores,    2 groups
 using from now: INCAR     
 vasp.5.4.4.18Apr17-6-g9f103f2a35 (build Nov 27 2019 20:08:17) complex          
  
 POSCAR found type information on POSCAR  Ti
 POSCAR found :  1 types and      36 ions
 scaLAPACK will be used

 ----------------------------------------------------------------------------- 
|                                                                             |
|           W    W    AA    RRRRR   N    N  II  N    N   GGGG   !!!           |
|           W    W   A  A   R    R  NN   N  II  NN   N  G    G  !!!           |
|           W    W  A    A  R    R  N N  N  II  N N  N  G       !!!           |
|           W WW W  AAAAAA  RRRRR   N  N N  II  N  N N  G  GGG   !            |
|           WW  WW  A    A  R   R   N   NN  II  N   NN  G    G                |
|           W    W  A    A  R    R  N    N  II  N    N   GGGG   !!!           |
|                                                                             |
|      You have enabled k-point parallelism (KPAR>1).                         |
|      This developmental code was originally  written by Paul Kent at ORNL,  |
|      and carefully double checked in Vienna.                                |
|      GW as well as linear response parallelism added by Martijn Marsman     |
|      and Georg Kresse.                                                      |
|      Carefully verify results versus KPAR=1.                                |
|      Report problems to Paul Kent and Vienna.                               |
|                                                                             |
 ----------------------------------------------------------------------------- 

 LDA part: xc-table for Pade appr. of Perdew
 POSCAR found type information on POSCAR  Ti
 POSCAR found :  1 types and      36 ions
 POSCAR, INCAR and KPOINTS ok, starting setup
 FFT: planning ...
 WAVECAR not read
 WARNING: random wavefunctions but no delay for mixing, default for NELMDL
 entering main loop
       N       E                     dE             d eps       ncg     rms          rms(c)
DAV:   1     0.729673285628E+03    0.72967E+03   -0.41854E+04  2208   0.113E+03
DAV:   2    -0.190890294082E+03   -0.92056E+03   -0.88499E+03  2208   0.253E+02
DAV:   3    -0.325057036906E+03   -0.13417E+03   -0.12360E+03  3216   0.921E+01
DAV:   4    -0.334244382816E+03   -0.91873E+01   -0.84720E+01  3176   0.290E+01
DAV:   5    -0.334747216857E+03   -0.50283E+00   -0.48099E+00  3600   0.542E+00    0.824E+01
DAV:   6    -0.538839428814E+03   -0.20409E+03   -0.29626E+03  4168   0.961E+01    0.110E+02
DAV:   7    -0.289861436087E+03    0.24898E+03   -0.44189E+03  4104   0.165E+02    0.367E+01
DAV:   8    -0.280519902145E+03    0.93415E+01   -0.49663E+02  3212   0.762E+01    0.368E+01
DAV:   9    -0.275694753729E+03    0.48251E+01   -0.35256E+01  3696   0.136E+01    0.300E+01
DAV:  10    -0.278191982622E+03   -0.24972E+01   -0.36247E+00  3536   0.449E+00    0.327E+01
DAV:  11    -0.264510217734E+03    0.13682E+02   -0.30759E+01  3200   0.190E+01    0.111E+01
DAV:  12    -0.263795171277E+03    0.71505E+00   -0.18896E+00  3576   0.422E+00    0.891E+00
DAV:  13    -0.262615782489E+03    0.11794E+01   -0.31314E+00  2916   0.638E+00    0.365E+00
DAV:  14    -0.262448345051E+03    0.16744E+00   -0.10857E+00  3256   0.356E+00    0.183E+00
DAV:  15    -0.262449865889E+03   -0.15208E-02   -0.49914E-02  3516   0.643E-01    0.120E+00
DAV:  16    -0.262466147913E+03   -0.16282E-01   -0.16035E-01  3480   0.108E+00    0.112E+00
DAV:  17    -0.262450647491E+03    0.15500E-01   -0.22524E-01  2960   0.161E+00    0.485E-01
DAV:  18    -0.262454503262E+03   -0.38558E-02   -0.17994E-02  3200   0.388E-01    0.377E-01
DAV:  19    -0.262462069837E+03   -0.75666E-02   -0.27730E-02  3240   0.507E-01    0.602E-01
DAV:  20    -0.262458386576E+03    0.36833E-02   -0.31176E-02  2924   0.603E-01    0.632E-02
DAV:  21    -0.262459655236E+03   -0.12687E-02   -0.13218E-03  2712   0.107E-01    0.423E-02
DAV:  22    -0.262460273181E+03   -0.61794E-03   -0.36042E-04  2752   0.551E-02    0.541E-02
DAV:  23    -0.262460252832E+03    0.20349E-04   -0.69742E-04  3408   0.825E-02    0.317E-02
DAV:  24    -0.262460244659E+03    0.81736E-05   -0.25958E-05  2496   0.153E-02    0.176E-02
DAV:  25    -0.262460241633E+03    0.30259E-05   -0.44467E-05  2920   0.210E-02
   1 F= -.26246024E+03 E0= -.26240778E+03  d E =-.104926E+00
 running on   16 total cores
 distrk:  each k-point on    8 cores,    2 groups
 distr:  one band on    4 cores,    2 groups
 using from now: INCAR     
 vasp.5.4.4.18Apr17-6-g9f103f2a35 (build Nov 27 2019 20:08:17) complex          
  
 POSCAR found type information on POSCAR  Ti
 POSCAR found :  1 types and      68 ions
 scaLAPACK will be used

 ----------------------------------------------------------------------------- 
|                                                                             |
|           W    W    AA    RRRRR   N    N  II  N    N   GGGG   !!!           |
|           W    W   A  A   R    R  NN   N  II  NN   N  G    G  !!!           |
|           W    W  A    A  R    R  N N  N  II  N N  N  G       !!!           |
|           W WW W  AAAAAA  RRRRR   N  N N  II  N  N N  G  GGG   !            |
|           WW  WW  A    A  R   R   N   NN  II  N   NN  G    G                |
|           W    W  A    A  R    R  N    N  II  N    N   GGGG   !!!           |
|                                                                             |
|      You have enabled k-point parallelism (KPAR>1).                         |
|      This developmental code was originally  written by Paul Kent at ORNL,  |
|      and carefully double checked in Vienna.                                |
|      GW as well as linear response parallelism added by Martijn Marsman     |
|      and Georg Kresse.                                                      |
|      Carefully verify results versus KPAR=1.                                |
|      Report problems to Paul Kent and Vienna.                               |
|                                                                             |
 ----------------------------------------------------------------------------- 

 LDA part: xc-table for Pade appr. of Perdew
 POSCAR found type information on POSCAR  Ti
 POSCAR found :  1 types and      68 ions
 POSCAR, INCAR and KPOINTS ok, starting setup
 FFT: planning ...
 WAVECAR not read
 WARNING: random wavefunctions but no delay for mixing, default for NELMDL
 entering main loop
       N       E                     dE             d eps       ncg     rms          rms(c)
DAV:   1     0.122256188217E+04    0.12226E+04   -0.78505E+04  4128   0.125E+03
DAV:   2    -0.341808076767E+03   -0.15644E+04   -0.15166E+04  4128   0.279E+02
DAV:   3    -0.570649013116E+03   -0.22884E+03   -0.21296E+03  5976   0.992E+01
DAV:   4    -0.588868680761E+03   -0.18220E+02   -0.17054E+02  6008   0.295E+01
DAV:   5    -0.589559102582E+03   -0.69042E+00   -0.67192E+00  5880   0.467E+00    0.108E+02
DAV:   6    -0.135345263673E+04   -0.76389E+03   -0.77366E+03  8204   0.154E+02    0.142E+02
DAV:   7    -0.606985673238E+03    0.74647E+03   -0.97265E+03  7512   0.166E+02    0.645E+01
DAV:   8    -0.570515051283E+03    0.36471E+02   -0.21018E+03  6984   0.136E+02    0.603E+01
DAV:   9    -0.564359057309E+03    0.61560E+01   -0.82613E+02  7296   0.853E+01    0.510E+01
DAV:  10    -0.531386745830E+03    0.32972E+02   -0.29588E+02  7104   0.467E+01    0.419E+01
DAV:  11    -0.521295611400E+03    0.10091E+02   -0.53479E+01  6512   0.186E+01    0.357E+01
DAV:  12    -0.518426286580E+03    0.28693E+01   -0.70650E+00  6120   0.689E+00    0.316E+01
DAV:  13    -0.514465688004E+03    0.39606E+01   -0.77182E+00  6160   0.742E+00    0.235E+01
DAV:  14    -0.511501669405E+03    0.29640E+01   -0.89795E+00  6160   0.792E+00    0.174E+01
DAV:  15    -0.510353364109E+03    0.11483E+01   -0.54906E+00  6384   0.642E+00    0.147E+01
DAV:  16    -0.509319355590E+03    0.10340E+01   -0.26132E+00  6224   0.448E+00    0.118E+01
DAV:  17    -0.508633429379E+03    0.68593E+00   -0.17404E+00  6176   0.372E+00    0.901E+00
DAV:  18    -0.507826734481E+03    0.80669E+00   -0.27802E+00  5560   0.479E+00    0.425E+00
DAV:  19    -0.507644985077E+03    0.18175E+00   -0.16185E+00  6320   0.344E+00    0.203E+00
DAV:  20    -0.507600573332E+03    0.44412E-01   -0.43321E-01  6160   0.179E+00    0.870E-01
DAV:  21    -0.507594832712E+03    0.57406E-02   -0.13806E-01  6240   0.971E-01    0.526E-01
DAV:  22    -0.507593118234E+03    0.17145E-02   -0.51409E-02  6288   0.589E-01    0.498E-01
DAV:  23    -0.507591430471E+03    0.16878E-02   -0.19044E-02  6312   0.356E-01    0.382E-01
DAV:  24    -0.507590999586E+03    0.43088E-03   -0.97836E-03  6344   0.262E-01    0.243E-01
DAV:  25    -0.507590766966E+03    0.23262E-03   -0.70533E-03  6408   0.226E-01    0.151E-01
DAV:  26    -0.507590475171E+03    0.29180E-03   -0.27437E-03  6160   0.132E-01    0.765E-02
DAV:  27    -0.507590391301E+03    0.83870E-04   -0.60288E-04  6288   0.662E-02    0.385E-02
DAV:  28    -0.507590374409E+03    0.16892E-04   -0.20923E-04  6328   0.378E-02    0.241E-02
DAV:  29    -0.507590373733E+03    0.67602E-06   -0.86169E-05  6072   0.259E-02    0.257E-02
DAV:  30    -0.507590365640E+03    0.80935E-05   -0.34662E-05  5136   0.163E-02    0.171E-02
DAV:  31    -0.507590360623E+03    0.50169E-05   -0.73212E-06  2840   0.909E-03    0.180E-02
DAV:  32    -0.507590356138E+03    0.44853E-05   -0.72124E-06  2592   0.931E-03
   1 F= -.50759036E+03 E0= -.50751555E+03  d E =-.149606E+00
Distance=2.000
 running on   16 total cores
 distrk:  each k-point on    8 cores,    2 groups
 distr:  one band on    4 cores,    2 groups
 using from now: INCAR     
 vasp.5.4.4.18Apr17-6-g9f103f2a35 (build Nov 27 2019 20:08:17) complex          
  
 POSCAR found type information on POSCAR  Ti
 POSCAR found :  1 types and      32 ions
 scaLAPACK will be used

 ----------------------------------------------------------------------------- 
|                                                                             |
|           W    W    AA    RRRRR   N    N  II  N    N   GGGG   !!!           |
|           W    W   A  A   R    R  NN   N  II  NN   N  G    G  !!!           |
|           W    W  A    A  R    R  N N  N  II  N N  N  G       !!!           |
|           W WW W  AAAAAA  RRRRR   N  N N  II  N  N N  G  GGG   !            |
|           WW  WW  A    A  R   R   N   NN  II  N   NN  G    G                |
|           W    W  A    A  R    R  N    N  II  N    N   GGGG   !!!           |
|                                                                             |
|      You have enabled k-point parallelism (KPAR>1).                         |
|      This developmental code was originally  written by Paul Kent at ORNL,  |
|      and carefully double checked in Vienna.                                |
|      GW as well as linear response parallelism added by Martijn Marsman     |
|      and Georg Kresse.                                                      |
|      Carefully verify results versus KPAR=1.                                |
|      Report problems to Paul Kent and Vienna.                               |
|                                                                             |
 ----------------------------------------------------------------------------- 

 LDA part: xc-table for Pade appr. of Perdew
 POSCAR found type information on POSCAR  Ti
 POSCAR found :  1 types and      32 ions
 POSCAR, INCAR and KPOINTS ok, starting setup
 FFT: planning ...
 WAVECAR not read
 entering main loop
       N       E                     dE             d eps       ncg     rms          rms(c)
DAV:   1     0.593225586025E+03    0.59323E+03   -0.36057E+04  1968   0.109E+03
DAV:   2    -0.165876227306E+03   -0.75910E+03   -0.73065E+03  1968   0.242E+02
DAV:   3    -0.277408166921E+03   -0.11153E+03   -0.10527E+03  3096   0.839E+01
DAV:   4    -0.286543061474E+03   -0.91349E+01   -0.84674E+01  3104   0.263E+01
DAV:   5    -0.287109322093E+03   -0.56626E+00   -0.53697E+00  3152   0.533E+00    0.669E+01
DAV:   6    -0.423221822138E+03   -0.13611E+03   -0.23170E+03  3680   0.960E+01    0.841E+01
DAV:   7    -0.250151587559E+03    0.17307E+03   -0.25858E+03  3416   0.156E+02    0.296E+01
DAV:   8    -0.252871319020E+03   -0.27197E+01   -0.47707E+02  3078   0.663E+01    0.310E+01
DAV:   9    -0.236426059006E+03    0.16445E+02   -0.95294E+01  3062   0.294E+01    0.199E+01
DAV:  10    -0.235913665637E+03    0.51239E+00   -0.10703E+01  3224   0.721E+00    0.180E+01
DAV:  11    -0.237379824197E+03   -0.14662E+01   -0.39311E+00  3256   0.484E+00    0.200E+01
DAV:  12    -0.234039924745E+03    0.33399E+01   -0.59562E+00  3024   0.892E+00    0.140E+01
DAV:  13    -0.230661035754E+03    0.33789E+01   -0.88978E+00  2864   0.109E+01    0.652E+00
DAV:  14    -0.230304354256E+03    0.35668E+00   -0.19739E+00  3248   0.352E+00    0.467E+00
DAV:  15    -0.230261104240E+03    0.43250E-01   -0.13397E+00  2776   0.429E+00    0.462E+00
DAV:  16    -0.230029002902E+03    0.23210E+00   -0.20611E+00  3094   0.375E+00    0.174E+00
DAV:  17    -0.230019711863E+03    0.92910E-02   -0.12386E-01  2984   0.107E+00    0.101E+00
DAV:  18    -0.230004321531E+03    0.15390E-01   -0.78811E-02  3184   0.748E-01    0.373E-01
DAV:  19    -0.230004257030E+03    0.64500E-04   -0.21695E-02  3264   0.394E-01    0.193E-01
DAV:  20    -0.230005406122E+03   -0.11491E-02   -0.84038E-03  2992   0.330E-01    0.180E-01
DAV:  21    -0.230005926302E+03   -0.52018E-03   -0.40137E-03  2560   0.226E-01    0.109E-01
DAV:  22    -0.230007885169E+03   -0.19589E-02   -0.39741E-03  3008   0.173E-01    0.126E-01
DAV:  23    -0.230008471214E+03   -0.58604E-03   -0.71667E-04  2824   0.876E-02    0.541E-02
DAV:  24    -0.230008820811E+03   -0.34960E-03   -0.33825E-04  3088   0.497E-02    0.219E-02
DAV:  25    -0.230008942498E+03   -0.12169E-03   -0.84561E-05  2520   0.295E-02    0.107E-02
DAV:  26    -0.230008954758E+03   -0.12260E-04   -0.15872E-05  1992   0.114E-02    0.122E-02
DAV:  27    -0.230008957091E+03   -0.23329E-05   -0.82250E-06  1640   0.103E-02
   1 F= -.23000896E+03 E0= -.22995114E+03  d E =-.115641E+00
 running on   16 total cores
 distrk:  each k-point on    8 cores,    2 groups
 distr:  one band on    4 cores,    2 groups
 using from now: INCAR     
 vasp.5.4.4.18Apr17-6-g9f103f2a35 (build Nov 27 2019 20:08:17) complex          
  
 POSCAR found type information on POSCAR  Ti
 POSCAR found :  1 types and      36 ions
 scaLAPACK will be used

 ----------------------------------------------------------------------------- 
|                                                                             |
|           W    W    AA    RRRRR   N    N  II  N    N   GGGG   !!!           |
|           W    W   A  A   R    R  NN   N  II  NN   N  G    G  !!!           |
|           W    W  A    A  R    R  N N  N  II  N N  N  G       !!!           |
|           W WW W  AAAAAA  RRRRR   N  N N  II  N  N N  G  GGG   !            |
|           WW  WW  A    A  R   R   N   NN  II  N   NN  G    G                |
|           W    W  A    A  R    R  N    N  II  N    N   GGGG   !!!           |
|                                                                             |
|      You have enabled k-point parallelism (KPAR>1).                         |
|      This developmental code was originally  written by Paul Kent at ORNL,  |
|      and carefully double checked in Vienna.                                |
|      GW as well as linear response parallelism added by Martijn Marsman     |
|      and Georg Kresse.                                                      |
|      Carefully verify results versus KPAR=1.                                |
|      Report problems to Paul Kent and Vienna.                               |
|                                                                             |
 ----------------------------------------------------------------------------- 

 LDA part: xc-table for Pade appr. of Perdew
 POSCAR found type information on POSCAR  Ti
 POSCAR found :  1 types and      36 ions
 POSCAR, INCAR and KPOINTS ok, starting setup
 FFT: planning ...
 WAVECAR not read
 WARNING: random wavefunctions but no delay for mixing, default for NELMDL
 entering main loop
       N       E                     dE             d eps       ncg     rms          rms(c)
DAV:   1     0.739477550421E+03    0.73948E+03   -0.41808E+04  2208   0.112E+03
DAV:   2    -0.190665082044E+03   -0.93014E+03   -0.89314E+03  2208   0.252E+02
DAV:   3    -0.324700933730E+03   -0.13404E+03   -0.12326E+03  3184   0.912E+01
DAV:   4    -0.334219709165E+03   -0.95188E+01   -0.87900E+01  3168   0.294E+01
DAV:   5    -0.334742391666E+03   -0.52268E+00   -0.49468E+00  3528   0.562E+00    0.824E+01
DAV:   6    -0.534135284470E+03   -0.19939E+03   -0.29158E+03  4188   0.953E+01    0.110E+02
DAV:   7    -0.294121149061E+03    0.24001E+03   -0.45173E+03  4056   0.166E+02    0.374E+01
DAV:   8    -0.281158537070E+03    0.12963E+02   -0.49777E+02  3176   0.770E+01    0.370E+01
DAV:   9    -0.276333436252E+03    0.48251E+01   -0.34741E+01  3688   0.135E+01    0.304E+01
DAV:  10    -0.279788000186E+03   -0.34546E+01   -0.42036E+00  3496   0.525E+00    0.340E+01
DAV:  11    -0.264358610454E+03    0.15429E+02   -0.38102E+01  3220   0.209E+01    0.105E+01
DAV:  12    -0.263476342765E+03    0.88227E+00   -0.29044E+00  3600   0.526E+00    0.765E+00
DAV:  13    -0.262683781167E+03    0.79256E+00   -0.16393E+00  2924   0.471E+00    0.415E+00
DAV:  14    -0.262457288566E+03    0.22649E+00   -0.10896E+00  3144   0.372E+00    0.192E+00
DAV:  15    -0.262454940607E+03    0.23480E-02   -0.86531E-02  3644   0.877E-01    0.123E+00
DAV:  16    -0.262458643054E+03   -0.37024E-02   -0.56629E-02  3472   0.697E-01    0.813E-01
DAV:  17    -0.262448933873E+03    0.97092E-02   -0.56789E-02  2888   0.902E-01    0.250E-01
DAV:  18    -0.262468209906E+03   -0.19276E-01   -0.12376E-01  3192   0.120E+00    0.109E+00
DAV:  19    -0.262455223764E+03    0.12986E-01   -0.55566E-02  3140   0.763E-01    0.339E-01
DAV:  20    -0.262456167154E+03   -0.94339E-03   -0.42287E-03  2536   0.256E-01    0.125E-01
DAV:  21    -0.262458263848E+03   -0.20967E-02   -0.10314E-03  2780   0.903E-02    0.102E-01
DAV:  22    -0.262458589625E+03   -0.32578E-03   -0.73567E-04  3316   0.875E-02    0.263E-02
DAV:  23    -0.262458843522E+03   -0.25390E-03   -0.32515E-04  2872   0.610E-02    0.327E-02
DAV:  24    -0.262458864024E+03   -0.20502E-04   -0.39009E-05  2688   0.207E-02    0.128E-02
DAV:  25    -0.262458869977E+03   -0.59528E-05   -0.17975E-05  2184   0.161E-02    0.431E-03
DAV:  26    -0.262458870118E+03   -0.14090E-06   -0.19041E-06  1612   0.469E-03
   1 F= -.26245887E+03 E0= -.26240641E+03  d E =-.104916E+00
 running on   16 total cores
 distrk:  each k-point on    8 cores,    2 groups
 distr:  one band on    4 cores,    2 groups
 using from now: INCAR     
 vasp.5.4.4.18Apr17-6-g9f103f2a35 (build Nov 27 2019 20:08:17) complex          
  
 POSCAR found type information on POSCAR  Ti
 POSCAR found :  1 types and      68 ions
 scaLAPACK will be used

 ----------------------------------------------------------------------------- 
|                                                                             |
|           W    W    AA    RRRRR   N    N  II  N    N   GGGG   !!!           |
|           W    W   A  A   R    R  NN   N  II  NN   N  G    G  !!!           |
|           W    W  A    A  R    R  N N  N  II  N N  N  G       !!!           |
|           W WW W  AAAAAA  RRRRR   N  N N  II  N  N N  G  GGG   !            |
|           WW  WW  A    A  R   R   N   NN  II  N   NN  G    G                |
|           W    W  A    A  R    R  N    N  II  N    N   GGGG   !!!           |
|                                                                             |
|      You have enabled k-point parallelism (KPAR>1).                         |
|      This developmental code was originally  written by Paul Kent at ORNL,  |
|      and carefully double checked in Vienna.                                |
|      GW as well as linear response parallelism added by Martijn Marsman     |
|      and Georg Kresse.                                                      |
|      Carefully verify results versus KPAR=1.                                |
|      Report problems to Paul Kent and Vienna.                               |
|                                                                             |
 ----------------------------------------------------------------------------- 

 LDA part: xc-table for Pade appr. of Perdew
 POSCAR found type information on POSCAR  Ti
 POSCAR found :  1 types and      68 ions
 POSCAR, INCAR and KPOINTS ok, starting setup
 FFT: planning ...
 WAVECAR not read
 WARNING: random wavefunctions but no delay for mixing, default for NELMDL
 entering main loop
       N       E                     dE             d eps       ncg     rms          rms(c)
DAV:   1     0.117213015375E+04    0.11721E+04   -0.78120E+04  4128   0.123E+03
DAV:   2    -0.355608067082E+03   -0.15277E+04   -0.14828E+04  4128   0.275E+02
DAV:   3    -0.581163308005E+03   -0.22556E+03   -0.20955E+03  6096   0.962E+01
DAV:   4    -0.599448726125E+03   -0.18285E+02   -0.17155E+02  6120   0.281E+01
DAV:   5    -0.600207320319E+03   -0.75859E+00   -0.73349E+00  5992   0.452E+00    0.106E+02
DAV:   6    -0.150641343849E+04   -0.90621E+03   -0.92373E+03  8116   0.173E+02    0.121E+02
DAV:   7    -0.646253207211E+03    0.86016E+03   -0.87667E+03  7576   0.152E+02    0.833E+01
DAV:   8    -0.530120122515E+03    0.11613E+03   -0.28224E+03  6568   0.155E+02    0.440E+01
DAV:   9    -0.557767432053E+03   -0.27647E+02   -0.85121E+02  7160   0.676E+01    0.439E+01
DAV:  10    -0.551126496161E+03    0.66409E+01   -0.23751E+02  6944   0.379E+01    0.441E+01
DAV:  11    -0.538735289051E+03    0.12391E+02   -0.37939E+01  6584   0.149E+01    0.397E+01
DAV:  12    -0.534708848686E+03    0.40264E+01   -0.36378E+00  6336   0.413E+00    0.367E+01
DAV:  13    -0.522714822856E+03    0.11994E+02   -0.18114E+01  6528   0.108E+01    0.246E+01
DAV:  14    -0.517591884415E+03    0.51229E+01   -0.18629E+01  6424   0.113E+01    0.165E+01
DAV:  15    -0.515151429802E+03    0.24405E+01   -0.36777E+00  6008   0.502E+00    0.117E+01
DAV:  16    -0.513650167442E+03    0.15013E+01   -0.20560E+00  6152   0.362E+00    0.811E+00
DAV:  17    -0.513325072687E+03    0.32509E+00   -0.20916E+00  6336   0.366E+00    0.743E+00
DAV:  18    -0.513027296731E+03    0.29778E+00   -0.12245E+00  6312   0.295E+00    0.666E+00
DAV:  19    -0.512733392777E+03    0.29390E+00   -0.97125E-01  6344   0.232E+00    0.609E+00
DAV:  20    -0.512311368122E+03    0.42202E+00   -0.96153E-01  6488   0.251E+00    0.417E+00
DAV:  21    -0.512117489604E+03    0.19388E+00   -0.96491E-01  6384   0.251E+00    0.229E+00
DAV:  22    -0.512081358126E+03    0.36131E-01   -0.51931E-01  6400   0.182E+00    0.153E+00
DAV:  23    -0.512061043122E+03    0.20315E-01   -0.11124E-01  6272   0.896E-01    0.100E+00
DAV:  24    -0.512054457303E+03    0.65858E-02   -0.52112E-02  6200   0.544E-01    0.810E-01
DAV:  25    -0.512043315130E+03    0.11142E-01   -0.64886E-02  6768   0.636E-01    0.418E-01
DAV:  26    -0.512043049358E+03    0.26577E-03   -0.11764E-02  6264   0.275E-01    0.399E-01
DAV:  27    -0.512041693714E+03    0.13556E-02   -0.56244E-03  6440   0.196E-01    0.266E-01
DAV:  28    -0.512041620919E+03    0.72795E-04   -0.35047E-03  6352   0.140E-01    0.207E-01
DAV:  29    -0.512041061830E+03    0.55909E-03   -0.29679E-03  6456   0.141E-01    0.104E-01
DAV:  30    -0.512041037245E+03    0.24585E-04   -0.12801E-03  6280   0.932E-02    0.859E-02
DAV:  31    -0.512040957002E+03    0.80243E-04   -0.59435E-04  6136   0.637E-02    0.583E-02
DAV:  32    -0.512040952588E+03    0.44139E-05   -0.19040E-04  6360   0.350E-02    0.544E-02
DAV:  33    -0.512040951600E+03    0.98808E-06   -0.68989E-05  5864   0.196E-02    0.414E-02
DAV:  34    -0.512040933429E+03    0.18171E-04   -0.11675E-04  5576   0.309E-02    0.182E-02
DAV:  35    -0.512040929533E+03    0.38958E-05   -0.10682E-05  3064   0.106E-02
   1 F= -.51204093E+03 E0= -.51195671E+03  d E =-.168438E+00
Distance=2.500
 running on   16 total cores
 distrk:  each k-point on    8 cores,    2 groups
 distr:  one band on    4 cores,    2 groups
 using from now: INCAR     
 vasp.5.4.4.18Apr17-6-g9f103f2a35 (build Nov 27 2019 20:08:17) complex          
  
 POSCAR found type information on POSCAR  Ti
 POSCAR found :  1 types and      32 ions
 scaLAPACK will be used

 ----------------------------------------------------------------------------- 
|                                                                             |
|           W    W    AA    RRRRR   N    N  II  N    N   GGGG   !!!           |
|           W    W   A  A   R    R  NN   N  II  NN   N  G    G  !!!           |
|           W    W  A    A  R    R  N N  N  II  N N  N  G       !!!           |
|           W WW W  AAAAAA  RRRRR   N  N N  II  N  N N  G  GGG   !            |
|           WW  WW  A    A  R   R   N   NN  II  N   NN  G    G                |
|           W    W  A    A  R    R  N    N  II  N    N   GGGG   !!!           |
|                                                                             |
|      You have enabled k-point parallelism (KPAR>1).                         |
|      This developmental code was originally  written by Paul Kent at ORNL,  |
|      and carefully double checked in Vienna.                                |
|      GW as well as linear response parallelism added by Martijn Marsman     |
|      and Georg Kresse.                                                      |
|      Carefully verify results versus KPAR=1.                                |
|      Report problems to Paul Kent and Vienna.                               |
|                                                                             |
 ----------------------------------------------------------------------------- 

 LDA part: xc-table for Pade appr. of Perdew
 POSCAR found type information on POSCAR  Ti
 POSCAR found :  1 types and      32 ions
 POSCAR, INCAR and KPOINTS ok, starting setup
 FFT: planning ...
 WAVECAR not read
 entering main loop
       N       E                     dE             d eps       ncg     rms          rms(c)
DAV:   1     0.599755170373E+03    0.59976E+03   -0.35899E+04  1968   0.108E+03
DAV:   2    -0.164444720785E+03   -0.76420E+03   -0.73535E+03  1968   0.241E+02
DAV:   3    -0.276882641045E+03   -0.11244E+03   -0.10611E+03  3088   0.834E+01
DAV:   4    -0.286495359773E+03   -0.96127E+01   -0.89186E+01  3088   0.266E+01
DAV:   5    -0.287108202982E+03   -0.61284E+00   -0.58254E+00  3144   0.564E+00    0.669E+01
DAV:   6    -0.419243256583E+03   -0.13214E+03   -0.22675E+03  3656   0.953E+01    0.836E+01
DAV:   7    -0.252030705515E+03    0.16721E+03   -0.26151E+03  3416   0.157E+02    0.297E+01
DAV:   8    -0.251430274726E+03    0.60043E+00   -0.45262E+02  3034   0.649E+01    0.306E+01
DAV:   9    -0.236676779325E+03    0.14753E+02   -0.90370E+01  3046   0.283E+01    0.201E+01
DAV:  10    -0.236232955820E+03    0.44382E+00   -0.99591E+00  3256   0.694E+00    0.185E+01
DAV:  11    -0.237339253739E+03   -0.11063E+01   -0.37813E+00  3264   0.466E+00    0.199E+01
DAV:  12    -0.234649504151E+03    0.26897E+01   -0.49125E+00  3070   0.780E+00    0.151E+01
DAV:  13    -0.230753547404E+03    0.38960E+01   -0.98978E+00  2788   0.116E+01    0.695E+00
DAV:  14    -0.230363355634E+03    0.39019E+00   -0.21260E+00  3304   0.366E+00    0.513E+00
DAV:  15    -0.230244598701E+03    0.11876E+00   -0.14650E+00  2696   0.456E+00    0.472E+00
DAV:  16    -0.230028960002E+03    0.21564E+00   -0.17249E+00  3136   0.341E+00    0.154E+00
DAV:  17    -0.230022338937E+03    0.66211E-02   -0.11780E-01  3008   0.101E+00    0.913E-01
DAV:  18    -0.230007931237E+03    0.14408E-01   -0.99718E-02  3176   0.777E-01    0.397E-01
DAV:  19    -0.230006534167E+03    0.13971E-02   -0.14799E-02  3040   0.367E-01    0.174E-01
DAV:  20    -0.230006712168E+03   -0.17800E-03   -0.68656E-03  2944   0.299E-01    0.150E-01
DAV:  21    -0.230006160152E+03    0.55202E-03   -0.30885E-03  2464   0.198E-01    0.600E-02
DAV:  22    -0.230007352308E+03   -0.11922E-02   -0.10255E-03  2944   0.873E-02    0.783E-02
DAV:  23    -0.230007999597E+03   -0.64729E-03   -0.47853E-04  2640   0.844E-02    0.443E-02
DAV:  24    -0.230008667156E+03   -0.66756E-03   -0.28502E-04  2904   0.441E-02    0.342E-02
DAV:  25    -0.230008902404E+03   -0.23525E-03   -0.13216E-04  2512   0.406E-02    0.127E-02
DAV:  26    -0.230008980841E+03   -0.78437E-04   -0.38467E-05  2560   0.171E-02    0.173E-02
DAV:  27    -0.230008988034E+03   -0.71937E-05   -0.22134E-05  2136   0.152E-02    0.487E-03
DAV:  28    -0.230008989069E+03   -0.10342E-05   -0.19952E-06  1376   0.535E-03
   1 F= -.23000899E+03 E0= -.22995117E+03  d E =-.115642E+00
 running on   16 total cores
 distrk:  each k-point on    8 cores,    2 groups
 distr:  one band on    4 cores,    2 groups
 using from now: INCAR     
 vasp.5.4.4.18Apr17-6-g9f103f2a35 (build Nov 27 2019 20:08:17) complex          
  
 POSCAR found type information on POSCAR  Ti
 POSCAR found :  1 types and      36 ions
 scaLAPACK will be used

 ----------------------------------------------------------------------------- 
|                                                                             |
|           W    W    AA    RRRRR   N    N  II  N    N   GGGG   !!!           |
|           W    W   A  A   R    R  NN   N  II  NN   N  G    G  !!!           |
|           W    W  A    A  R    R  N N  N  II  N N  N  G       !!!           |
|           W WW W  AAAAAA  RRRRR   N  N N  II  N  N N  G  GGG   !            |
|           WW  WW  A    A  R   R   N   NN  II  N   NN  G    G                |
|           W    W  A    A  R    R  N    N  II  N    N   GGGG   !!!           |
|                                                                             |
|      You have enabled k-point parallelism (KPAR>1).                         |
|      This developmental code was originally  written by Paul Kent at ORNL,  |
|      and carefully double checked in Vienna.                                |
|      GW as well as linear response parallelism added by Martijn Marsman     |
|      and Georg Kresse.                                                      |
|      Carefully verify results versus KPAR=1.                                |
|      Report problems to Paul Kent and Vienna.                               |
|                                                                             |
 ----------------------------------------------------------------------------- 

 LDA part: xc-table for Pade appr. of Perdew
 POSCAR found type information on POSCAR  Ti
 POSCAR found :  1 types and      36 ions
 POSCAR, INCAR and KPOINTS ok, starting setup
 FFT: planning ...
 WAVECAR not read
 WARNING: random wavefunctions but no delay for mixing, default for NELMDL
 entering main loop
       N       E                     dE             d eps       ncg     rms          rms(c)
DAV:   1     0.748963565765E+03    0.74896E+03   -0.41675E+04  2208   0.111E+03
DAV:   2    -0.190641976149E+03   -0.93961E+03   -0.90237E+03  2208   0.252E+02
DAV:   3    -0.324939148439E+03   -0.13430E+03   -0.12374E+03  3256   0.907E+01
DAV:   4    -0.334234204740E+03   -0.92951E+01   -0.85810E+01  3160   0.291E+01
DAV:   5    -0.334744956458E+03   -0.51075E+00   -0.48838E+00  3544   0.560E+00    0.824E+01
DAV:   6    -0.526677999412E+03   -0.19193E+03   -0.28124E+03  4164   0.944E+01    0.109E+02
DAV:   7    -0.297208803679E+03    0.22947E+03   -0.45811E+03  4052   0.168E+02    0.379E+01
DAV:   8    -0.281564835956E+03    0.15644E+02   -0.50166E+02  3196   0.774E+01    0.372E+01
DAV:   9    -0.277011041580E+03    0.45538E+01   -0.33666E+01  3744   0.134E+01    0.310E+01
DAV:  10    -0.278394811299E+03   -0.13838E+01   -0.25998E+00  3472   0.292E+00    0.323E+01
DAV:  11    -0.264828538590E+03    0.13566E+02   -0.32872E+01  3336   0.193E+01    0.120E+01
DAV:  12    -0.263649551501E+03    0.11790E+01   -0.32376E+00  3456   0.571E+00    0.814E+00
DAV:  13    -0.263027539651E+03    0.62201E+00   -0.72730E-01  3024   0.308E+00    0.585E+00
DAV:  14    -0.262663680954E+03    0.36386E+00   -0.55168E-01  3232   0.231E+00    0.393E+00
DAV:  15    -0.262502075877E+03    0.16161E+00   -0.61487E-01  2788   0.288E+00    0.247E+00
DAV:  16    -0.262476413346E+03    0.25663E-01   -0.78841E-01  3456   0.243E+00    0.185E+00
DAV:  17    -0.262468266730E+03    0.81466E-02   -0.60228E-02  3304   0.757E-01    0.124E+00
DAV:  18    -0.262452308226E+03    0.15959E-01   -0.40470E-02  3040   0.667E-01    0.494E-01
DAV:  19    -0.262458407975E+03   -0.60997E-02   -0.74888E-02  3064   0.900E-01    0.605E-01
DAV:  20    -0.262455372168E+03    0.30358E-02   -0.20469E-02  2988   0.462E-01    0.222E-01
DAV:  21    -0.262457797963E+03   -0.24258E-02   -0.31327E-03  2928   0.185E-01    0.315E-01
DAV:  22    -0.262458048103E+03   -0.25014E-03   -0.34437E-03  2712   0.189E-01    0.928E-02
DAV:  23    -0.262458641966E+03   -0.59386E-03   -0.11983E-03  3384   0.102E-01    0.505E-02
DAV:  24    -0.262458779095E+03   -0.13713E-03   -0.15810E-04  3224   0.349E-02    0.129E-02
DAV:  25    -0.262458817764E+03   -0.38668E-04   -0.44398E-05  2976   0.167E-02    0.129E-02
DAV:  26    -0.262458822221E+03   -0.44574E-05   -0.75974E-06  1812   0.120E-02
   1 F= -.26245882E+03 E0= -.26240637E+03  d E =-.104906E+00
 running on   16 total cores
 distrk:  each k-point on    8 cores,    2 groups
 distr:  one band on    4 cores,    2 groups
 using from now: INCAR     
 vasp.5.4.4.18Apr17-6-g9f103f2a35 (build Nov 27 2019 20:08:17) complex          
  
 POSCAR found type information on POSCAR  Ti
 POSCAR found :  1 types and      68 ions
 scaLAPACK will be used

 ----------------------------------------------------------------------------- 
|                                                                             |
|           W    W    AA    RRRRR   N    N  II  N    N   GGGG   !!!           |
|           W    W   A  A   R    R  NN   N  II  NN   N  G    G  !!!           |
|           W    W  A    A  R    R  N N  N  II  N N  N  G       !!!           |
|           W WW W  AAAAAA  RRRRR   N  N N  II  N  N N  G  GGG   !            |
|           WW  WW  A    A  R   R   N   NN  II  N   NN  G    G                |
|           W    W  A    A  R    R  N    N  II  N    N   GGGG   !!!           |
|                                                                             |
|      You have enabled k-point parallelism (KPAR>1).                         |
|      This developmental code was originally  written by Paul Kent at ORNL,  |
|      and carefully double checked in Vienna.                                |
|      GW as well as linear response parallelism added by Martijn Marsman     |
|      and Georg Kresse.                                                      |
|      Carefully verify results versus KPAR=1.                                |
|      Report problems to Paul Kent and Vienna.                               |
|                                                                             |
 ----------------------------------------------------------------------------- 

 LDA part: xc-table for Pade appr. of Perdew
 POSCAR found type information on POSCAR  Ti
 POSCAR found :  1 types and      68 ions
 POSCAR, INCAR and KPOINTS ok, starting setup
 FFT: planning ...
 WAVECAR not read
 WARNING: random wavefunctions but no delay for mixing, default for NELMDL
 entering main loop
       N       E                     dE             d eps       ncg     rms          rms(c)
DAV:   1     0.114663357877E+04    0.11466E+04   -0.77840E+04  4128   0.122E+03
DAV:   2    -0.366619940022E+03   -0.15133E+04   -0.14678E+04  4128   0.272E+02
DAV:   3    -0.596570663362E+03   -0.22995E+03   -0.21371E+03  6144   0.959E+01
DAV:   4    -0.614877509467E+03   -0.18307E+02   -0.17303E+02  6112   0.284E+01
DAV:   5    -0.615602922109E+03   -0.72541E+00   -0.70248E+00  5968   0.451E+00    0.107E+02
DAV:   6    -0.192843388489E+04   -0.13128E+04   -0.14113E+04  8064   0.194E+02    0.131E+02
DAV:   7    -0.684887111110E+03    0.12435E+04   -0.93209E+03  7728   0.142E+02    0.104E+02
DAV:   8    -0.522743795649E+03    0.16214E+03   -0.38098E+03  6592   0.177E+02    0.404E+01
DAV:   9    -0.576265070114E+03   -0.53521E+02   -0.10724E+03  7592   0.721E+01    0.520E+01
DAV:  10    -0.544303653171E+03    0.31961E+02   -0.34290E+02  7016   0.464E+01    0.406E+01
DAV:  11    -0.531625006828E+03    0.12679E+02   -0.57905E+01  6952   0.190E+01    0.342E+01
DAV:  12    -0.525140573980E+03    0.64844E+01   -0.17754E+01  6776   0.867E+00    0.293E+01
DAV:  13    -0.517329769640E+03    0.78108E+01   -0.40684E+01  6672   0.150E+01    0.199E+01
DAV:  14    -0.517150821113E+03    0.17895E+00   -0.25881E+01  6960   0.133E+01    0.187E+01
DAV:  15    -0.515969696643E+03    0.11811E+01   -0.26355E+00  6120   0.422E+00    0.167E+01
DAV:  16    -0.514348603437E+03    0.16211E+01   -0.10928E+00  6392   0.254E+00    0.144E+01
DAV:  17    -0.512753059200E+03    0.15955E+01   -0.28968E+00  6304   0.376E+00    0.120E+01
DAV:  18    -0.511298828984E+03    0.14542E+01   -0.32585E+00  6424   0.400E+00    0.884E+00
DAV:  19    -0.510351728744E+03    0.94710E+00   -0.14246E+00  6568   0.275E+00    0.607E+00
DAV:  20    -0.509799302745E+03    0.55243E+00   -0.11165E+00  6496   0.254E+00    0.378E+00
DAV:  21    -0.509691792201E+03    0.10751E+00   -0.10903E+00  6400   0.259E+00    0.296E+00
DAV:  22    -0.509654365742E+03    0.37426E-01   -0.49378E-01  6432   0.176E+00    0.248E+00
DAV:  23    -0.509576605057E+03    0.77761E-01   -0.24622E-01  6344   0.114E+00    0.151E+00
DAV:  24    -0.509538401102E+03    0.38204E-01   -0.17379E-01  6656   0.860E-01    0.631E-01
DAV:  25    -0.509537301130E+03    0.11000E-02   -0.49458E-02  6368   0.514E-01    0.605E-01
DAV:  26    -0.509535671084E+03    0.16300E-02   -0.23903E-02  6328   0.371E-01    0.485E-01
DAV:  27    -0.509536399495E+03   -0.72841E-03   -0.14258E-02  6680   0.289E-01    0.430E-01
DAV:  28    -0.509536837480E+03   -0.43799E-03   -0.80322E-03  6552   0.214E-01    0.354E-01
DAV:  29    -0.509534595664E+03    0.22418E-02   -0.11584E-02  6752   0.265E-01    0.199E-01
DAV:  30    -0.509534430687E+03    0.16498E-03   -0.21577E-03  6184   0.127E-01    0.141E-01
DAV:  31    -0.509534394574E+03    0.36113E-04   -0.26766E-04  6224   0.397E-02    0.125E-01
DAV:  32    -0.509534298307E+03    0.96267E-04   -0.28952E-04  6344   0.355E-02    0.797E-02
DAV:  33    -0.509534277786E+03    0.20520E-04   -0.24893E-04  6368   0.369E-02    0.509E-02
DAV:  34    -0.509534261776E+03    0.16011E-04   -0.13615E-04  6360   0.231E-02    0.261E-02
DAV:  35    -0.509534258643E+03    0.31323E-05   -0.23501E-05  4312   0.130E-02
   1 F= -.50953426E+03 E0= -.50945453E+03  d E =-.159453E+00
Distance=3.000
 running on   16 total cores
 distrk:  each k-point on    8 cores,    2 groups
 distr:  one band on    4 cores,    2 groups
 using from now: INCAR     
 vasp.5.4.4.18Apr17-6-g9f103f2a35 (build Nov 27 2019 20:08:17) complex          
  
 POSCAR found type information on POSCAR  Ti
 POSCAR found :  1 types and      32 ions
 scaLAPACK will be used

 ----------------------------------------------------------------------------- 
|                                                                             |
|           W    W    AA    RRRRR   N    N  II  N    N   GGGG   !!!           |
|           W    W   A  A   R    R  NN   N  II  NN   N  G    G  !!!           |
|           W    W  A    A  R    R  N N  N  II  N N  N  G       !!!           |
|           W WW W  AAAAAA  RRRRR   N  N N  II  N  N N  G  GGG   !            |
|           WW  WW  A    A  R   R   N   NN  II  N   NN  G    G                |
|           W    W  A    A  R    R  N    N  II  N    N   GGGG   !!!           |
|                                                                             |
|      You have enabled k-point parallelism (KPAR>1).                         |
|      This developmental code was originally  written by Paul Kent at ORNL,  |
|      and carefully double checked in Vienna.                                |
|      GW as well as linear response parallelism added by Martijn Marsman     |
|      and Georg Kresse.                                                      |
|      Carefully verify results versus KPAR=1.                                |
|      Report problems to Paul Kent and Vienna.                               |
|                                                                             |
 ----------------------------------------------------------------------------- 

 LDA part: xc-table for Pade appr. of Perdew
 POSCAR found type information on POSCAR  Ti
 POSCAR found :  1 types and      32 ions
 POSCAR, INCAR and KPOINTS ok, starting setup
 FFT: planning ...
 WAVECAR not read
 entering main loop
       N       E                     dE             d eps       ncg     rms          rms(c)
DAV:   1     0.599294991507E+03    0.59929E+03   -0.35750E+04  1968   0.107E+03
DAV:   2    -0.165243878809E+03   -0.76454E+03   -0.73569E+03  1968   0.239E+02
DAV:   3    -0.276923029554E+03   -0.11168E+03   -0.10539E+03  3080   0.823E+01
DAV:   4    -0.286501789214E+03   -0.95788E+01   -0.88576E+01  3096   0.263E+01
DAV:   5    -0.287109319729E+03   -0.60753E+00   -0.57730E+00  3152   0.562E+00    0.669E+01
DAV:   6    -0.414582993968E+03   -0.12747E+03   -0.22126E+03  3688   0.945E+01    0.830E+01
DAV:   7    -0.253518482647E+03    0.16106E+03   -0.26295E+03  3440   0.158E+02    0.297E+01
DAV:   8    -0.249502777831E+03    0.40157E+01   -0.41994E+02  3012   0.629E+01    0.300E+01
DAV:   9    -0.236927058839E+03    0.12576E+02   -0.82896E+01  3116   0.267E+01    0.203E+01
DAV:  10    -0.236534080697E+03    0.39298E+00   -0.87001E+00  3272   0.673E+00    0.188E+01
DAV:  11    -0.237265530068E+03   -0.73145E+00   -0.37186E+00  3232   0.444E+00    0.198E+01
DAV:  12    -0.233550508671E+03    0.37150E+01   -0.83866E+00  3080   0.104E+01    0.130E+01
DAV:  13    -0.230923145840E+03    0.26274E+01   -0.57450E+00  2924   0.867E+00    0.771E+00
DAV:  14    -0.230444462439E+03    0.47868E+00   -0.21316E+00  3240   0.378E+00    0.597E+00
DAV:  15    -0.230223144937E+03    0.22132E+00   -0.11484E+00  2800   0.390E+00    0.476E+00
DAV:  16    -0.230033788980E+03    0.18936E+00   -0.17813E+00  3136   0.348E+00    0.150E+00
DAV:  17    -0.230022801392E+03    0.10988E-01   -0.13059E-01  3000   0.984E-01    0.891E-01
DAV:  18    -0.230010149991E+03    0.12651E-01   -0.12926E-01  3168   0.872E-01    0.435E-01
DAV:  19    -0.230009258190E+03    0.89180E-03   -0.20225E-02  2984   0.446E-01    0.157E-01
DAV:  20    -0.230009371959E+03   -0.11377E-03   -0.40428E-03  3200   0.194E-01    0.776E-02
DAV:  21    -0.230008537088E+03    0.83487E-03   -0.18743E-03  2944   0.113E-01    0.746E-02
DAV:  22    -0.230008782178E+03   -0.24509E-03   -0.30279E-04  3088   0.445E-02    0.507E-02
DAV:  23    -0.230009303338E+03   -0.52116E-03   -0.15383E-04  2392   0.340E-02    0.371E-02
DAV:  24    -0.230009560657E+03   -0.25732E-03   -0.35339E-04  3208   0.555E-02    0.291E-02
DAV:  25    -0.230009829455E+03   -0.26880E-03   -0.20331E-04  2944   0.404E-02    0.207E-02
DAV:  26    -0.230009933740E+03   -0.10429E-03   -0.54792E-05  2624   0.195E-02    0.844E-03
DAV:  27    -0.230009952792E+03   -0.19052E-04   -0.30858E-06  1488   0.614E-03    0.791E-03
DAV:  28    -0.230009969260E+03   -0.16468E-04   -0.28785E-06  1496   0.493E-03    0.428E-03
DAV:  29    -0.230009970685E+03   -0.14250E-05   -0.12619E-06  1368   0.272E-03
   1 F= -.23000997E+03 E0= -.22995215E+03  d E =-.115647E+00
 running on   16 total cores
 distrk:  each k-point on    8 cores,    2 groups
 distr:  one band on    4 cores,    2 groups
 using from now: INCAR     
 vasp.5.4.4.18Apr17-6-g9f103f2a35 (build Nov 27 2019 20:08:17) complex          
  
 POSCAR found type information on POSCAR  Ti
 POSCAR found :  1 types and      36 ions
 scaLAPACK will be used

 ----------------------------------------------------------------------------- 
[...]
DAV:  38    -0.492494979371E+03    0.13307E-02   -0.32654E-03  5928   0.130E-01    0.249E-01
DAV:  39    -0.492495029394E+03   -0.50023E-04   -0.25245E-03  6232   0.115E-01    0.139E-01
DAV:  40    -0.492495473562E+03   -0.44417E-03   -0.99307E-04  6264   0.710E-02    0.121E-01
DAV:  41    -0.492495626185E+03   -0.15262E-03   -0.57835E-04  6304   0.486E-02    0.913E-02
DAV:  42    -0.492495775209E+03   -0.14902E-03   -0.49639E-04  5968   0.560E-02    0.587E-02
DAV:  43    -0.492495783561E+03   -0.83520E-05   -0.16800E-04  6328   0.320E-02    0.443E-02
DAV:  44    -0.492495791555E+03   -0.79938E-05   -0.73346E-05  6360   0.188E-02    0.414E-02
DAV:  45    -0.492495791794E+03   -0.23903E-06   -0.36506E-05  5256   0.155E-02
   1 F= -.49249579E+03 E0= -.49238548E+03  d E =-.220631E+00
Distance=10.000
 running on   16 total cores
 distrk:  each k-point on    8 cores,    2 groups
 distr:  one band on    4 cores,    2 groups
 using from now: INCAR     
 vasp.5.4.4.18Apr17-6-g9f103f2a35 (build Nov 27 2019 20:08:17) complex          
  
 POSCAR found type information on POSCAR  Ti
 POSCAR found :  1 types and      32 ions
 scaLAPACK will be used

 ----------------------------------------------------------------------------- 
|                                                                             |
|           W    W    AA    RRRRR   N    N  II  N    N   GGGG   !!!           |
|           W    W   A  A   R    R  NN   N  II  NN   N  G    G  !!!           |
|           W    W  A    A  R    R  N N  N  II  N N  N  G       !!!           |
|           W WW W  AAAAAA  RRRRR   N  N N  II  N  N N  G  GGG   !            |
|           WW  WW  A    A  R   R   N   NN  II  N   NN  G    G                |
|           W    W  A    A  R    R  N    N  II  N    N   GGGG   !!!           |
|                                                                             |
|      You have enabled k-point parallelism (KPAR>1).                         |
|      This developmental code was originally  written by Paul Kent at ORNL,  |
|      and carefully double checked in Vienna.                                |
|      GW as well as linear response parallelism added by Martijn Marsman     |
|      and Georg Kresse.                                                      |
|      Carefully verify results versus KPAR=1.                                |
|      Report problems to Paul Kent and Vienna.                               |
|                                                                             |
 ----------------------------------------------------------------------------- 

 LDA part: xc-table for Pade appr. of Perdew
 POSCAR found type information on POSCAR  Ti
 POSCAR found :  1 types and      32 ions
 POSCAR, INCAR and KPOINTS ok, starting setup
 FFT: planning ...
 WAVECAR not read
 entering main loop
       N       E                     dE             d eps       ncg     rms          rms(c)
DAV:   1     0.607770373475E+03    0.60777E+03   -0.33699E+04  1968   0.991E+02
DAV:   2    -0.174876750688E+03   -0.78265E+03   -0.74845E+03  2064   0.230E+02
DAV:   3    -0.278216128776E+03   -0.10334E+03   -0.98038E+02  3128   0.784E+01
DAV:   4    -0.286552931935E+03   -0.83368E+01   -0.77098E+01  3088   0.244E+01
DAV:   5    -0.287118969436E+03   -0.56604E+00   -0.54128E+00  3184   0.540E+00    0.670E+01
DAV:   6    -0.420647435828E+03   -0.13353E+03   -0.22896E+03  3680   0.956E+01    0.838E+01
DAV:   7    -0.273201473927E+03    0.14745E+03   -0.33379E+03  3496   0.175E+02    0.335E+01
DAV:   8    -0.242962001682E+03    0.30239E+02   -0.37576E+02  2942   0.662E+01    0.277E+01
DAV:   9    -0.242595432119E+03    0.36657E+00   -0.34543E+01  3296   0.146E+01    0.257E+01
DAV:  10    -0.238820652207E+03    0.37748E+01   -0.17350E+01  3142   0.114E+01    0.212E+01
DAV:  11    -0.240466747452E+03   -0.16461E+01   -0.16104E+00  3344   0.339E+00    0.228E+01
DAV:  12    -0.233034933161E+03    0.74318E+01   -0.19807E+01  3046   0.143E+01    0.128E+01
DAV:  13    -0.231530291703E+03    0.15046E+01   -0.29941E+00  3200   0.501E+00    0.881E+00
DAV:  14    -0.231025292109E+03    0.50500E+00   -0.45703E-01  3344   0.201E+00    0.729E+00
DAV:  15    -0.230047227425E+03    0.97806E+00   -0.42371E+00  3112   0.662E+00    0.242E+00
DAV:  16    -0.230075051055E+03   -0.27824E-01   -0.96772E-01  3144   0.259E+00    0.249E+00
DAV:  17    -0.230000203180E+03    0.74848E-01   -0.42909E-01  3054   0.190E+00    0.982E-01
DAV:  18    -0.230008210027E+03   -0.80068E-02   -0.67679E-02  3416   0.780E-01    0.801E-01
DAV:  19    -0.230005565401E+03    0.26446E-02   -0.23394E-02  3096   0.399E-01    0.397E-01
DAV:  20    -0.230005323406E+03    0.24200E-03   -0.74437E-03  3256   0.187E-01    0.149E-01
DAV:  21    -0.230006907245E+03   -0.15838E-02   -0.20062E-03  3192   0.101E-01    0.931E-02
DAV:  22    -0.230007579902E+03   -0.67266E-03   -0.51889E-04  3344   0.561E-02    0.978E-02
DAV:  23    -0.230008054968E+03   -0.47507E-03   -0.48286E-04  2952   0.619E-02    0.816E-02
DAV:  24    -0.230008255400E+03   -0.20043E-03   -0.37922E-04  3176   0.422E-02    0.427E-02
DAV:  25    -0.230008381583E+03   -0.12618E-03   -0.11271E-04  3032   0.288E-02    0.132E-02
DAV:  26    -0.230008483548E+03   -0.10196E-03   -0.37675E-05  2520   0.130E-02    0.170E-02
DAV:  27    -0.230008535045E+03   -0.51497E-04   -0.23570E-05  2016   0.147E-02    0.914E-03
DAV:  28    -0.230008555346E+03   -0.20302E-04   -0.31687E-06  1392   0.551E-03    0.617E-03
DAV:  29    -0.230008585494E+03   -0.30148E-04   -0.55617E-06  1496   0.787E-03    0.483E-03
DAV:  30    -0.230008600639E+03   -0.15145E-04   -0.23774E-06  1360   0.485E-03    0.251E-03
DAV:  31    -0.230008607206E+03   -0.65668E-05   -0.15939E-06  1344   0.338E-03    0.268E-03
DAV:  32    -0.230008611503E+03   -0.42967E-05   -0.85758E-07  1344   0.357E-03
   1 F= -.23000861E+03 E0= -.22995079E+03  d E =-.115643E+00
 running on   16 total cores
 distrk:  each k-point on    8 cores,    2 groups
 distr:  one band on    4 cores,    2 groups
 using from now: INCAR     
 vasp.5.4.4.18Apr17-6-g9f103f2a35 (build Nov 27 2019 20:08:17) complex          
  
 POSCAR found type information on POSCAR  Ti
 POSCAR found :  1 types and      36 ions
 scaLAPACK will be used

 ----------------------------------------------------------------------------- 
|                                                                             |
|           W    W    AA    RRRRR   N    N  II  N    N   GGGG   !!!           |
|           W    W   A  A   R    R  NN   N  II  NN   N  G    G  !!!           |
|           W    W  A    A  R    R  N N  N  II  N N  N  G       !!!           |
|           W WW W  AAAAAA  RRRRR   N  N N  II  N  N N  G  GGG   !            |
|           WW  WW  A    A  R   R   N   NN  II  N   NN  G    G                |
|           W    W  A    A  R    R  N    N  II  N    N   GGGG   !!!           |
|                                                                             |
|      You have enabled k-point parallelism (KPAR>1).                         |
|      This developmental code was originally  written by Paul Kent at ORNL,  |
|      and carefully double checked in Vienna.                                |
|      GW as well as linear response parallelism added by Martijn Marsman     |
|      and Georg Kresse.                                                      |
|      Carefully verify results versus KPAR=1.                                |
|      Report problems to Paul Kent and Vienna.                               |
|                                                                             |
 ----------------------------------------------------------------------------- 

 LDA part: xc-table for Pade appr. of Perdew
 POSCAR found type information on POSCAR  Ti
 POSCAR found :  1 types and      36 ions
 POSCAR, INCAR and KPOINTS ok, starting setup
 FFT: planning ...
 WAVECAR not read
 WARNING: random wavefunctions but no delay for mixing, default for NELMDL
 entering main loop
       N       E                     dE             d eps       ncg     rms          rms(c)
DAV:   1     0.768385903763E+03    0.76839E+03   -0.39603E+04  2208   0.102E+03
DAV:   2    -0.204090369233E+03   -0.97248E+03   -0.92633E+03  2356   0.240E+02
DAV:   3    -0.326119724200E+03   -0.12203E+03   -0.11324E+03  3240   0.856E+01
DAV:   4    -0.334239878876E+03   -0.81202E+01   -0.75295E+01  3184   0.269E+01
DAV:   5    -0.334743074240E+03   -0.50320E+00   -0.48172E+00  3528   0.551E+00    0.824E+01
DAV:   6    -0.528704468877E+03   -0.19396E+03   -0.28265E+03  4168   0.948E+01    0.109E+02
DAV:   7    -0.327866615596E+03    0.20084E+03   -0.57016E+03  4080   0.187E+02    0.443E+01
DAV:   8    -0.285010502559E+03    0.42856E+02   -0.68777E+02  3168   0.944E+01    0.399E+01
DAV:   9    -0.284409258558E+03    0.60124E+00   -0.55996E+01  3608   0.212E+01    0.368E+01
DAV:  10    -0.283000006224E+03    0.14093E+01   -0.37274E+00  3544   0.440E+00    0.355E+01
DAV:  11    -0.277608476250E+03    0.53915E+01   -0.30270E+00  2880   0.618E+00    0.289E+01
DAV:  12    -0.264376387469E+03    0.13232E+02   -0.27840E+01  3288   0.176E+01    0.103E+01
DAV:  13    -0.263914574711E+03    0.46181E+00   -0.13368E+00  3368   0.372E+00    0.868E+00
DAV:  14    -0.263152665641E+03    0.76191E+00   -0.93946E-01  3464   0.293E+00    0.644E+00
DAV:  15    -0.262645504721E+03    0.50716E+00   -0.13843E+00  2700   0.450E+00    0.422E+00
DAV:  16    -0.262459201018E+03    0.18630E+00   -0.24707E+00  3468   0.387E+00    0.191E+00
DAV:  17    -0.262479790549E+03   -0.20590E-01   -0.14292E-01  3744   0.902E-01    0.170E+00
DAV:  18    -0.262451136434E+03    0.28654E-01   -0.26471E-01  3428   0.156E+00    0.605E-01
DAV:  19    -0.262457764109E+03   -0.66277E-02   -0.90782E-02  3068   0.104E+00    0.685E-01
DAV:  20    -0.262452550408E+03    0.52137E-02   -0.28503E-02  3300   0.509E-01    0.203E-01
DAV:  21    -0.262456799868E+03   -0.42495E-02   -0.25166E-02  3560   0.458E-01    0.311E-01
DAV:  22    -0.262456914509E+03   -0.11464E-03   -0.70152E-03  3052   0.265E-01    0.101E-01
DAV:  23    -0.262457448445E+03   -0.53394E-03   -0.22720E-04  2992   0.417E-02    0.874E-02
DAV:  24    -0.262458076937E+03   -0.62849E-03   -0.86601E-04  3300   0.777E-02    0.310E-02
DAV:  25    -0.262458413876E+03   -0.33694E-03   -0.21840E-04  3520   0.372E-02    0.326E-02
DAV:  26    -0.262458533285E+03   -0.11941E-03   -0.41635E-05  2696   0.196E-02    0.382E-02
DAV:  27    -0.262458594878E+03   -0.61593E-04   -0.94165E-05  3088   0.294E-02    0.109E-02
DAV:  28    -0.262458621336E+03   -0.26458E-04   -0.32795E-05  2812   0.133E-02    0.132E-02
DAV:  29    -0.262458657356E+03   -0.36020E-04   -0.11227E-05  1596   0.129E-02    0.402E-03
DAV:  30    -0.262458664804E+03   -0.74487E-05   -0.19792E-06  1468   0.414E-03    0.360E-03
DAV:  31    -0.262458673810E+03   -0.90062E-05   -0.22144E-06  1460   0.497E-03    0.240E-03
DAV:  32    -0.262458688984E+03   -0.15174E-04   -0.14912E-06  1452   0.406E-03    0.222E-03
DAV:  33    -0.262458691778E+03   -0.27935E-05   -0.10934E-06  1260   0.330E-03
   1 F= -.26245869E+03 E0= -.26240624E+03  d E =-.104908E+00
 running on   16 total cores
 distrk:  each k-point on    8 cores,    2 groups
 distr:  one band on    4 cores,    2 groups
 using from now: INCAR     
 vasp.5.4.4.18Apr17-6-g9f103f2a35 (build Nov 27 2019 20:08:17) complex          
  
 POSCAR found type information on POSCAR  Ti
 POSCAR found :  1 types and      68 ions
 scaLAPACK will be used

 ----------------------------------------------------------------------------- 
|                                                                             |
|           W    W    AA    RRRRR   N    N  II  N    N   GGGG   !!!           |
|           W    W   A  A   R    R  NN   N  II  NN   N  G    G  !!!           |
|           W    W  A    A  R    R  N N  N  II  N N  N  G       !!!           |
|           W WW W  AAAAAA  RRRRR   N  N N  II  N  N N  G  GGG   !            |
|           WW  WW  A    A  R   R   N   NN  II  N   NN  G    G                |
|           W    W  A    A  R    R  N    N  II  N    N   GGGG   !!!           |
|                                                                             |
|      You have enabled k-point parallelism (KPAR>1).                         |
|      This developmental code was originally  written by Paul Kent at ORNL,  |
|      and carefully double checked in Vienna.                                |
|      GW as well as linear response parallelism added by Martijn Marsman     |
|      and Georg Kresse.                                                      |
|      Carefully verify results versus KPAR=1.                                |
|      Report problems to Paul Kent and Vienna.                               |
|                                                                             |
 ----------------------------------------------------------------------------- 

 LDA part: xc-table for Pade appr. of Perdew
 POSCAR found type information on POSCAR  Ti
 POSCAR found :  1 types and      68 ions
 POSCAR, INCAR and KPOINTS ok, starting setup
 FFT: planning ...
 WAVECAR not read
 WARNING: random wavefunctions but no delay for mixing, default for NELMDL
 entering main loop
       N       E                     dE             d eps       ncg     rms          rms(c)
DAV:   1     0.132765443561E+04    0.13277E+04   -0.78021E+04  4128   0.113E+03
DAV:   2    -0.355502829090E+03   -0.16832E+04   -0.16201E+04  4128   0.254E+02
DAV:   3    -0.615034286885E+03   -0.25953E+03   -0.24365E+03  6304   0.920E+01
DAV:   4    -0.634645013652E+03   -0.19611E+02   -0.18408E+02  6160   0.288E+01
DAV:   5    -0.635622694861E+03   -0.97768E+00   -0.94798E+00  6528   0.549E+00    0.109E+02
DAV:   6    -0.626536792265E+04   -0.56297E+04   -0.56498E+04  5900   0.121E+02    0.214E+02
DAV:   7    -0.624329487115E+03    0.56410E+04   -0.51948E+03  5648   0.136E+02    0.118E+02
DAV:   8    -0.165058441418E+04   -0.10263E+04   -0.30930E+04  8240   0.254E+02    0.114E+02
DAV:   9    -0.762770638014E+03    0.88781E+03   -0.11663E+04  7580   0.173E+02    0.116E+02
DAV:  10    -0.680424975293E+03    0.82346E+02   -0.45905E+03  7168   0.185E+02    0.599E+01
DAV:  11    -0.547546391162E+03    0.13288E+03   -0.63236E+02  6624   0.615E+01    0.511E+01
DAV:  12    -0.541850170333E+03    0.56962E+01   -0.10272E+02  6576   0.193E+01    0.464E+01
DAV:  13    -0.539000858743E+03    0.28493E+01   -0.83980E+00  6520   0.703E+00    0.448E+01
DAV:  14    -0.535158243984E+03    0.38426E+01   -0.63760E+00  6984   0.769E+00    0.425E+01
DAV:  15    -0.521512209587E+03    0.13646E+02   -0.39681E+01  6496   0.147E+01    0.347E+01
DAV:  16    -0.507460464574E+03    0.14052E+02   -0.13923E+01  6280   0.777E+00    0.247E+01
DAV:  17    -0.502148552127E+03    0.53119E+01   -0.71642E+00  6272   0.485E+00    0.196E+01
DAV:  18    -0.505360419259E+03   -0.32119E+01   -0.93749E+00  6864   0.449E+00    0.241E+01
DAV:  19    -0.500765584185E+03    0.45948E+01   -0.19618E+01  6104   0.654E+00    0.188E+01
DAV:  20    -0.497666482618E+03    0.30991E+01   -0.45698E+00  6436   0.330E+00    0.149E+01
DAV:  21    -0.498672734106E+03   -0.10063E+01   -0.10479E+01  6388   0.408E+00    0.173E+01
DAV:  22    -0.495098794582E+03    0.35739E+01   -0.65574E+00  6216   0.534E+00    0.117E+01
DAV:  23    -0.494493444186E+03    0.60535E+00   -0.16822E+00  6460   0.314E+00    0.106E+01
DAV:  24    -0.493921020703E+03    0.57242E+00   -0.20322E+00  6504   0.298E+00    0.913E+00
DAV:  25    -0.493153412016E+03    0.76761E+00   -0.15342E+00  6488   0.288E+00    0.641E+00
DAV:  26    -0.492996062778E+03    0.15735E+00   -0.26526E-01  6056   0.110E+00    0.558E+00
DAV:  27    -0.492974358850E+03    0.21704E-01   -0.34750E-01  6752   0.822E-01    0.555E+00
DAV:  28    -0.492827571885E+03    0.14679E+00   -0.25685E-01  6544   0.109E+00    0.470E+00
DAV:  29    -0.492690577289E+03    0.13699E+00   -0.70024E-01  6512   0.936E-01    0.366E+00
DAV:  30    -0.492795394471E+03   -0.10482E+00   -0.66575E-01  6144   0.121E+00    0.445E+00
DAV:  31    -0.492644008739E+03    0.15139E+00   -0.18209E-01  6280   0.817E-01    0.334E+00
DAV:  32    -0.492581505053E+03    0.62504E-01   -0.74173E-02  6480   0.569E-01    0.277E+00
DAV:  33    -0.492550728432E+03    0.30777E-01   -0.88919E-02  6656   0.599E-01    0.225E+00
DAV:  34    -0.492503694216E+03    0.47034E-01   -0.16891E-01  6576   0.572E-01    0.114E+00
DAV:  35    -0.492490868258E+03    0.12826E-01   -0.36639E-02  6504   0.441E-01    0.774E-01
DAV:  36    -0.492490194249E+03    0.67401E-03   -0.34102E-02  6632   0.416E-01    0.759E-01
DAV:  37    -0.492493982999E+03   -0.37887E-02   -0.32696E-02  6656   0.379E-01    0.727E-01
DAV:  38    -0.492495295856E+03   -0.13129E-02   -0.11338E-02  6640   0.231E-01    0.646E-01
DAV:  39    -0.492492972383E+03    0.23235E-02   -0.10045E-02  6448   0.165E-01    0.396E-01
DAV:  40    -0.492493212992E+03   -0.24061E-03   -0.23726E-03  6368   0.956E-02    0.345E-01
DAV:  41    -0.492493954200E+03   -0.74121E-03   -0.16599E-03  6480   0.802E-02    0.398E-01
DAV:  42    -0.492492959501E+03    0.99470E-03   -0.95897E-04  6496   0.638E-02    0.263E-01
DAV:  43    -0.492492565427E+03    0.39407E-03   -0.43050E-04  6392   0.454E-02    0.195E-01
DAV:  44    -0.492492276482E+03    0.28895E-03   -0.41647E-04  6648   0.367E-02    0.124E-01
DAV:  45    -0.492492234511E+03    0.41971E-04   -0.10133E-04  6368   0.232E-02    0.970E-02
DAV:  46    -0.492492228116E+03    0.63957E-05   -0.74435E-05  5536   0.212E-02    0.807E-02
DAV:  47    -0.492492187121E+03    0.40995E-04   -0.15236E-04  6416   0.275E-02    0.528E-02
DAV:  48    -0.492492158715E+03    0.28406E-04   -0.88105E-05  6464   0.217E-02    0.280E-02
DAV:  49    -0.492492165240E+03   -0.65251E-05   -0.17320E-04  6432   0.267E-02    0.372E-02
DAV:  50    -0.492492167918E+03   -0.26784E-05   -0.14142E-05  4320   0.802E-03
   1 F= -.49249217E+03 E0= -.49238174E+03  d E =-.220857E+00

DISTANCE=0.500
E_alpha= -230.012083  E_beta= -262.462216  E_total= -306.425028 
W_seq=186.049271

DISTANCE=1.000
E_alpha= -230.009995  E_beta= -262.459874  E_total= -460.711661 
W_seq=31.758208

DISTANCE=1.500
E_alpha= -230.010253  E_beta= -262.460242  E_total= -507.590356 
W_seq=-15.119861

DISTANCE=2.000
E_alpha= -230.008957  E_beta= -262.458870  E_total= -512.040930 
W_seq=-19.573103

DISTANCE=2.500
E_alpha= -230.008989  E_beta= -262.458822  E_total= -509.534259 
W_seq=-17.066448

DISTANCE=3.000
E_alpha= -230.009971  E_beta= -262.460010  E_total= -505.546140 
W_seq=-13.076159

DISTANCE=3.500
E_alpha= -230.008706  E_beta= -262.458782  E_total= -501.514671 
W_seq=-9.047183

DISTANCE=4.000
E_alpha= -230.008707  E_beta= -262.458733  E_total= -498.289892 
W_seq=-5.822452

DISTANCE=4.500
E_alpha= -230.008851  E_beta= -262.458739  E_total= -496.003664 
W_seq=-3.536074

DISTANCE=5.000
E_alpha= -230.008776  E_beta= -262.458744  E_total= -494.499325 
W_seq=-2.031805

DISTANCE=5.500
E_alpha= -230.008875  E_beta= -262.458913  E_total= -493.567981 
W_seq=-1.100193

DISTANCE=6.000
E_alpha= -230.008875  E_beta= -262.458723  E_total= -493.028819 
W_seq=-0.561221

DISTANCE=6.500
E_alpha= -230.009344  E_beta= -262.459343  E_total= -492.745710 
W_seq=-0.277023

DISTANCE=7.000
E_alpha= -230.008826  E_beta= -262.458844  E_total= -492.609824 
W_seq=-0.142154

DISTANCE=7.500
E_alpha= -230.009834  E_beta= -262.459815  E_total= -492.551686 
W_seq=-0.082037

DISTANCE=8.000
E_alpha= -230.008584  E_beta= -262.458457  E_total= -492.521322 
W_seq=-0.054281

DISTANCE=8.500
E_alpha= -230.008736  E_beta= -262.458575  E_total= -492.507805 
W_seq=-0.040494

DISTANCE=9.000
E_alpha= -230.008652  E_beta= -262.458491  E_total= -492.499972 
W_seq=-0.032829

DISTANCE=9.500
E_alpha= -230.008887  E_beta= -262.458809  E_total= -492.495792 
W_seq=-0.028096

DISTANCE=10.000
E_alpha= -230.008612  E_beta= -262.458692  E_total= -492.492168 
W_seq=-0.024864

