Distance=0.500
 running on   16 total cores
 distrk:  each k-point on    8 cores,    2 groups
 distr:  one band on    8 cores,    1 groups
 using from now: INCAR     
 vasp.5.4.4.18Apr17-6-g9f103f2a35 (build Nov 27 2019 20:08:17) complex          
  
 POSCAR found type information on POSCAR  Ti
 POSCAR found :  1 types and      12 ions
 scaLAPACK will be used

 ----------------------------------------------------------------------------- 
|                                                                             |
|           W    W    AA    RRRRR   N    N  II  N    N   GGGG   !!!           |
|           W    W   A  A   R    R  NN   N  II  NN   N  G    G  !!!           |
|           W    W  A    A  R    R  N N  N  II  N N  N  G       !!!           |
|           W WW W  AAAAAA  RRRRR   N  N N  II  N  N N  G  GGG   !            |
|           WW  WW  A    A  R   R   N   NN  II  N   NN  G    G                |
|           W    W  A    A  R    R  N    N  II  N    N   GGGG   !!!           |
|                                                                             |
|      You have enabled k-point parallelism (KPAR>1).                         |
|      This developmental code was originally  written by Paul Kent at ORNL,  |
|      and carefully double checked in Vienna.                                |
|      GW as well as linear response parallelism added by Martijn Marsman     |
|      and Georg Kresse.                                                      |
|      Carefully verify results versus KPAR=1.                                |
|      Report problems to Paul Kent and Vienna.                               |
|                                                                             |
 ----------------------------------------------------------------------------- 

 LDA part: xc-table for Pade appr. of Perdew
 POSCAR found type information on POSCAR  Ti
 POSCAR found :  1 types and      12 ions
 POSCAR, INCAR and KPOINTS ok, starting setup
 FFT: planning ...
 WAVECAR not read
 WARNING: random wavefunctions but no delay for mixing, default for NELMDL
 entering main loop
       N       E                     dE             d eps       ncg     rms          rms(c)
DAV:   1     0.188201371398E+03    0.18820E+03   -0.12557E+04  1984   0.972E+02
DAV:   2    -0.684305752619E+02   -0.25663E+03   -0.24674E+03  1984   0.229E+02
DAV:   3    -0.105409204862E+03   -0.36979E+02   -0.34502E+02  3048   0.780E+01
DAV:   4    -0.108004579884E+03   -0.25954E+01   -0.24698E+01  3072   0.231E+01
DAV:   5    -0.108120160934E+03   -0.11558E+00   -0.11199E+00  3170   0.413E+00    0.427E+01
DAV:   6    -0.151745234287E+03   -0.43625E+02   -0.73393E+02  3853   0.822E+01    0.603E+01
DAV:   7    -0.959383101597E+02    0.55807E+02   -0.12263E+03  3756   0.148E+02    0.206E+01
DAV:   8    -0.921596882146E+02    0.37786E+01   -0.13978E+02  3143   0.632E+01    0.179E+01
DAV:   9    -0.904478774101E+02    0.17118E+01   -0.90224E+00  3296   0.113E+01    0.141E+01
DAV:  10    -0.905406426433E+02   -0.92765E-01   -0.35900E-01  3256   0.222E+00    0.142E+01
DAV:  11    -0.892634255970E+02    0.12772E+01   -0.15165E+00  3336   0.529E+00    0.116E+01
DAV:  12    -0.880576732716E+02    0.12058E+01   -0.13078E+00  3328   0.644E+00    0.813E+00
DAV:  13    -0.871438754351E+02    0.91380E+00   -0.26275E+00  3064   0.899E+00    0.401E+00
DAV:  14    -0.868970891386E+02    0.24679E+00   -0.11625E+00  2936   0.637E+00    0.168E+00
DAV:  15    -0.868938472151E+02    0.32419E-02   -0.81439E-01  3302   0.405E+00    0.140E+00
DAV:  16    -0.868646992511E+02    0.29148E-01   -0.32098E-01  3152   0.284E+00    0.709E-01
DAV:  17    -0.868712536403E+02   -0.65544E-02   -0.20282E-02  2868   0.750E-01    0.688E-01
DAV:  18    -0.868671085128E+02    0.41451E-02   -0.25654E-02  2576   0.977E-01    0.162E-01
DAV:  19    -0.868705228411E+02   -0.34143E-02   -0.14647E-02  3019   0.637E-01    0.199E-01
DAV:  20    -0.868708471170E+02   -0.32428E-03   -0.91862E-04  2976   0.158E-01    0.156E-01
DAV:  21    -0.868707560921E+02    0.91025E-04   -0.16802E-03  3176   0.193E-01    0.599E-02
DAV:  22    -0.868707574688E+02   -0.13767E-05   -0.19970E-04  3080   0.746E-02    0.344E-02
DAV:  23    -0.868707584073E+02   -0.93844E-06   -0.12208E-04  3080   0.567E-02    0.108E-02
DAV:  24    -0.868707579380E+02    0.46930E-06   -0.14587E-05  2008   0.256E-02
   1 F= -.86870758E+02 E0= -.86871295E+02  d E =0.161242E-02
 running on   16 total cores
 distrk:  each k-point on    8 cores,    2 groups
 distr:  one band on    8 cores,    1 groups
 using from now: INCAR     
 vasp.5.4.4.18Apr17-6-g9f103f2a35 (build Nov 27 2019 20:08:17) complex          
  
 POSCAR found type information on POSCAR  Ti
 POSCAR found :  1 types and      12 ions
 scaLAPACK will be used

 ----------------------------------------------------------------------------- 
|                                                                             |
|           W    W    AA    RRRRR   N    N  II  N    N   GGGG   !!!           |
|           W    W   A  A   R    R  NN   N  II  NN   N  G    G  !!!           |
|           W    W  A    A  R    R  N N  N  II  N N  N  G       !!!           |
|           W WW W  AAAAAA  RRRRR   N  N N  II  N  N N  G  GGG   !            |
|           WW  WW  A    A  R   R   N   NN  II  N   NN  G    G                |
|           W    W  A    A  R    R  N    N  II  N    N   GGGG   !!!           |
|                                                                             |
|      You have enabled k-point parallelism (KPAR>1).                         |
|      This developmental code was originally  written by Paul Kent at ORNL,  |
|      and carefully double checked in Vienna.                                |
|      GW as well as linear response parallelism added by Martijn Marsman     |
|      and Georg Kresse.                                                      |
|      Carefully verify results versus KPAR=1.                                |
|      Report problems to Paul Kent and Vienna.                               |
|                                                                             |
 ----------------------------------------------------------------------------- 

 LDA part: xc-table for Pade appr. of Perdew
 POSCAR found type information on POSCAR  Ti
 POSCAR found :  1 types and      12 ions
 POSCAR, INCAR and KPOINTS ok, starting setup
 FFT: planning ...
 WAVECAR not read
 WARNING: random wavefunctions but no delay for mixing, default for NELMDL
 entering main loop
       N       E                     dE             d eps       ncg     rms          rms(c)
DAV:   1     0.169637009592E+03    0.16964E+03   -0.12394E+04  1984   0.969E+02
DAV:   2    -0.731667386900E+02   -0.24280E+03   -0.23328E+03  1984   0.225E+02
DAV:   3    -0.108643590128E+03   -0.35477E+02   -0.32580E+02  2968   0.756E+01
DAV:   4    -0.110640651898E+03   -0.19971E+01   -0.18826E+01  2945   0.219E+01
DAV:   5    -0.110711999184E+03   -0.71347E-01   -0.70178E-01  2945   0.351E+00    0.386E+01
DAV:   6    -0.166888563629E+03   -0.56177E+02   -0.83566E+02  3891   0.808E+01    0.636E+01
DAV:   7    -0.919969047184E+02    0.74892E+02   -0.11664E+03  3835   0.133E+02    0.196E+01
DAV:   8    -0.931718475689E+02   -0.11749E+01   -0.16216E+02  3143   0.640E+01    0.184E+01
DAV:   9    -0.901688787238E+02    0.30030E+01   -0.24753E+01  3266   0.239E+01    0.133E+01
DAV:  10    -0.893561032335E+02    0.81278E+00   -0.29644E+00  3164   0.602E+00    0.115E+01
DAV:  11    -0.871610205744E+02    0.21951E+01   -0.38230E+00  2930   0.107E+01    0.628E+00
DAV:  12    -0.862924402451E+02    0.86858E+00   -0.36991E+00  3296   0.909E+00    0.180E+00
DAV:  13    -0.863644189543E+02   -0.71979E-01   -0.42004E-01  3056   0.297E+00    0.232E+00
DAV:  14    -0.862673171337E+02    0.97102E-01   -0.72661E-01  3032   0.417E+00    0.800E-01
DAV:  15    -0.862620591371E+02    0.52580E-02   -0.68559E-02  2646   0.158E+00    0.356E-01
DAV:  16    -0.862685976803E+02   -0.65385E-02   -0.68729E-02  3288   0.114E+00    0.536E-01
DAV:  17    -0.862664077721E+02    0.21899E-02   -0.36638E-02  3111   0.860E-01    0.779E-02
DAV:  18    -0.862700659143E+02   -0.36581E-02   -0.74033E-03  2939   0.410E-01    0.266E-01
DAV:  19    -0.862695582940E+02    0.50762E-03   -0.85125E-03  2928   0.456E-01    0.311E-02
DAV:  20    -0.862697366707E+02   -0.17838E-03   -0.63368E-04  2707   0.127E-01    0.305E-02
DAV:  21    -0.862697408116E+02   -0.41409E-05   -0.11005E-04  3097   0.509E-02    0.952E-03
DAV:  22    -0.862697491478E+02   -0.83363E-05   -0.20116E-05  2219   0.281E-02    0.266E-03
DAV:  23    -0.862697511971E+02   -0.20492E-05   -0.27788E-06  1557   0.930E-03
   1 F= -.86269751E+02 E0= -.86271005E+02  d E =0.376143E-02
 running on   16 total cores
 distrk:  each k-point on    8 cores,    2 groups
 distr:  one band on    8 cores,    1 groups
 using from now: INCAR     
 vasp.5.4.4.18Apr17-6-g9f103f2a35 (build Nov 27 2019 20:08:17) complex          
  
 POSCAR found type information on POSCAR  Ti
 POSCAR found :  1 types and      24 ions
 scaLAPACK will be used

 ----------------------------------------------------------------------------- 
|                                                                             |
|           W    W    AA    RRRRR   N    N  II  N    N   GGGG   !!!           |
|           W    W   A  A   R    R  NN   N  II  NN   N  G    G  !!!           |
|           W    W  A    A  R    R  N N  N  II  N N  N  G       !!!           |
|           W WW W  AAAAAA  RRRRR   N  N N  II  N  N N  G  GGG   !            |
|           WW  WW  A    A  R   R   N   NN  II  N   NN  G    G                |
|           W    W  A    A  R    R  N    N  II  N    N   GGGG   !!!           |
|                                                                             |
|      You have enabled k-point parallelism (KPAR>1).                         |
|      This developmental code was originally  written by Paul Kent at ORNL,  |
|      and carefully double checked in Vienna.                                |
|      GW as well as linear response parallelism added by Martijn Marsman     |
|      and Georg Kresse.                                                      |
|      Carefully verify results versus KPAR=1.                                |
|      Report problems to Paul Kent and Vienna.                               |
|                                                                             |
 ----------------------------------------------------------------------------- 

 LDA part: xc-table for Pade appr. of Perdew
 POSCAR found type information on POSCAR  Ti
 POSCAR found :  1 types and      24 ions

 ----------------------------------------------------------------------------- 
|                                                                             |
|           W    W    AA    RRRRR   N    N  II  N    N   GGGG   !!!           |
|           W    W   A  A   R    R  NN   N  II  NN   N  G    G  !!!           |
|           W    W  A    A  R    R  N N  N  II  N N  N  G       !!!           |
|           W WW W  AAAAAA  RRRRR   N  N N  II  N  N N  G  GGG   !            |
|           WW  WW  A    A  R   R   N   NN  II  N   NN  G    G                |
|           W    W  A    A  R    R  N    N  II  N    N   GGGG   !!!           |
|                                                                             |
|      The distance between some ions is very small                           |
|      please check the nearest neigbor list in the OUTCAR file               |
|          I HOPE YOU KNOW, WHAT YOU ARE  DOING                               |
|                                                                             |
 ----------------------------------------------------------------------------- 

 POSCAR, INCAR and KPOINTS ok, starting setup
 FFT: planning ...
 WAVECAR not read
 WARNING: random wavefunctions but no delay for mixing, default for NELMDL
 entering main loop
       N       E                     dE             d eps       ncg     rms          rms(c)
DAV:   1     0.723261510344E+03    0.72326E+03   -0.28037E+04  3904   0.114E+03
DAV:   2     0.956160471366E+02   -0.62765E+03   -0.61550E+03  3928   0.333E+02
DAV:   3     0.331537674160E+02   -0.62462E+02   -0.59619E+02  5344   0.109E+02
DAV:   4     0.302407402996E+02   -0.29130E+01   -0.27703E+01  5096   0.204E+01
DAV:   5     0.301067208083E+02   -0.13402E+00   -0.13140E+00  5720   0.356E+00    0.134E+02
DAV:   6    -0.520819485090E+03   -0.55093E+03   -0.19870E+04  5704   0.511E+02    0.111E+02
DAV:   7    -0.437135425892E+02    0.47711E+03   -0.26116E+03  5260   0.268E+02    0.857E+01
DAV:   8     0.110222459721E+03    0.15394E+03   -0.83021E+02  6688   0.131E+02    0.722E+01
DAV:   9     0.185959891870E+03    0.75737E+02   -0.23253E+02  6936   0.697E+01    0.633E+01
DAV:  10     0.191577914469E+03    0.56180E+01   -0.21927E+01  6544   0.185E+01    0.647E+01
DAV:  11     0.211609055866E+03    0.20031E+02   -0.19841E+01  7040   0.206E+01    0.704E+01
DAV:  12     0.233057332300E+03    0.21448E+02   -0.15598E+02  5883   0.512E+01    0.471E+01
DAV:  13     0.236670316648E+03    0.36130E+01   -0.16012E+02  6456   0.535E+01    0.650E+01
DAV:  14     0.224319389527E+03   -0.12351E+02   -0.12011E+02  6120   0.435E+01    0.904E+01
DAV:  15     0.240464604959E+03    0.16145E+02   -0.84420E+01  7104   0.412E+01    0.858E+01
DAV:  16     0.255651379625E+03    0.15187E+02   -0.31927E+01  6110   0.243E+01    0.697E+01
DAV:  17     0.275737972211E+03    0.20087E+02   -0.59509E+01  5769   0.276E+01    0.384E+01
DAV:  18     0.276665893989E+03    0.92792E+00   -0.89572E+00  6392   0.134E+01    0.383E+01
DAV:  19     0.277821380672E+03    0.11555E+01   -0.15630E+00  5819   0.502E+00    0.328E+01
DAV:  20     0.281371907969E+03    0.35505E+01   -0.82002E+00  5705   0.878E+00    0.186E+01
DAV:  21     0.281890667637E+03    0.51876E+00   -0.17073E+00  5966   0.581E+00    0.116E+01
DAV:  22     0.281712849370E+03   -0.17782E+00   -0.99998E-01  6440   0.395E+00    0.113E+01
DAV:  23     0.282023912228E+03    0.31106E+00   -0.91037E+00  5952   0.101E+01    0.548E+00
DAV:  24     0.282078123642E+03    0.54211E-01   -0.79788E-01  5552   0.422E+00    0.578E+00
DAV:  25     0.282206354490E+03    0.12823E+00   -0.14578E-01  6016   0.142E+00    0.436E+00
DAV:  26     0.282363687549E+03    0.15733E+00   -0.37014E-01  5830   0.202E+00    0.173E+00
DAV:  27     0.282386525393E+03    0.22838E-01   -0.82727E-02  6392   0.967E-01    0.129E+00
DAV:  28     0.282388478467E+03    0.19531E-02   -0.33955E-02  5928   0.885E-01    0.779E-01
DAV:  29     0.282392780169E+03    0.43017E-02   -0.74798E-03  5968   0.367E-01    0.508E-01
DAV:  30     0.282396025785E+03    0.32456E-02   -0.24736E-02  5968   0.519E-01    0.150E-01
DAV:  31     0.282396136762E+03    0.11098E-03   -0.16832E-03  5568   0.210E-01    0.112E-01
DAV:  32     0.282396149994E+03    0.13232E-04   -0.42549E-04  6440   0.789E-02    0.132E-01
DAV:  33     0.282396204958E+03    0.54964E-04   -0.56868E-04  5920   0.759E-02    0.838E-02
DAV:  34     0.282396274066E+03    0.69108E-04   -0.16878E-04  5184   0.509E-02    0.638E-02
DAV:  35     0.282396297819E+03    0.23753E-04   -0.33173E-05  5051   0.257E-02    0.433E-02
DAV:  36     0.282396318762E+03    0.20943E-04   -0.64982E-05  5680   0.325E-02    0.173E-02
DAV:  37     0.282396322309E+03    0.35475E-05   -0.11331E-05  3355   0.156E-02
   1 F= 0.28239632E+03 E0= 0.28239642E+03  d E =-.300785E-03
Distance=1.000
 running on   16 total cores
 distrk:  each k-point on    8 cores,    2 groups
 distr:  one band on    8 cores,    1 groups
 using from now: INCAR     
 vasp.5.4.4.18Apr17-6-g9f103f2a35 (build Nov 27 2019 20:08:17) complex          
  
 POSCAR found type information on POSCAR  Ti
 POSCAR found :  1 types and      12 ions
 scaLAPACK will be used

 ----------------------------------------------------------------------------- 
|                                                                             |
|           W    W    AA    RRRRR   N    N  II  N    N   GGGG   !!!           |
|           W    W   A  A   R    R  NN   N  II  NN   N  G    G  !!!           |
|           W    W  A    A  R    R  N N  N  II  N N  N  G       !!!           |
|           W WW W  AAAAAA  RRRRR   N  N N  II  N  N N  G  GGG   !            |
|           WW  WW  A    A  R   R   N   NN  II  N   NN  G    G                |
|           W    W  A    A  R    R  N    N  II  N    N   GGGG   !!!           |
|                                                                             |
|      You have enabled k-point parallelism (KPAR>1).                         |
|      This developmental code was originally  written by Paul Kent at ORNL,  |
|      and carefully double checked in Vienna.                                |
|      GW as well as linear response parallelism added by Martijn Marsman     |
|      and Georg Kresse.                                                      |
|      Carefully verify results versus KPAR=1.                                |
|      Report problems to Paul Kent and Vienna.                               |
|                                                                             |
 ----------------------------------------------------------------------------- 

 LDA part: xc-table for Pade appr. of Perdew
 POSCAR found type information on POSCAR  Ti
 POSCAR found :  1 types and      12 ions
 POSCAR, INCAR and KPOINTS ok, starting setup
 FFT: planning ...
 WAVECAR not read
 WARNING: random wavefunctions but no delay for mixing, default for NELMDL
 entering main loop
       N       E                     dE             d eps       ncg     rms          rms(c)
DAV:   1     0.191353892295E+03    0.19135E+03   -0.12562E+04  1984   0.965E+02
DAV:   2    -0.684571022150E+02   -0.25981E+03   -0.24931E+03  1984   0.228E+02
DAV:   3    -0.105309964754E+03   -0.36853E+02   -0.34430E+02  3024   0.769E+01
DAV:   4    -0.107979193561E+03   -0.26692E+01   -0.25363E+01  3088   0.232E+01
DAV:   5    -0.108118140501E+03   -0.13895E+00   -0.13497E+00  3216   0.435E+00    0.427E+01
DAV:   6    -0.151427578189E+03   -0.43309E+02   -0.72998E+02  3840   0.820E+01    0.601E+01
DAV:   7    -0.969430331369E+02    0.54485E+02   -0.12540E+03  3770   0.150E+02    0.210E+01
DAV:   8    -0.922265805062E+02    0.47165E+01   -0.14105E+02  3087   0.643E+01    0.181E+01
DAV:   9    -0.905884317008E+02    0.16381E+01   -0.95152E+00  3304   0.114E+01    0.143E+01
DAV:  10    -0.904902187633E+02    0.98213E-01   -0.38341E-01  3344   0.215E+00    0.141E+01
DAV:  11    -0.903800577332E+02    0.11016E+00   -0.94698E-02  3336   0.147E+00    0.138E+01
DAV:  12    -0.892392695610E+02    0.11408E+01   -0.63538E-01  2480   0.539E+00    0.112E+01
DAV:  13    -0.869134609546E+02    0.23258E+01   -0.12133E+01  3137   0.194E+01    0.444E+00
DAV:  14    -0.869931226911E+02   -0.79662E-01   -0.52975E-01  3440   0.271E+00    0.508E+00
DAV:  15    -0.869619652730E+02    0.31157E-01   -0.53269E-02  3105   0.102E+00    0.432E+00
DAV:  16    -0.869324820291E+02    0.29483E-01   -0.11989E+00  3113   0.564E+00    0.220E+00
DAV:  17    -0.869578189703E+02   -0.25337E-01   -0.13671E-01  3216   0.154E+00    0.298E+00
DAV:  18    -0.868800591929E+02    0.77760E-01   -0.18298E-01  3274   0.166E+00    0.152E+00
DAV:  19    -0.868660224294E+02    0.14037E-01   -0.73069E-02  3184   0.128E+00    0.549E-01
DAV:  20    -0.868660316468E+02   -0.92173E-05   -0.38494E-02  3321   0.781E-01    0.206E-01
DAV:  21    -0.868708815319E+02   -0.48499E-02   -0.14233E-02  3184   0.481E-01    0.577E-01
DAV:  22    -0.868692632671E+02    0.16183E-02   -0.62860E-03  3049   0.339E-01    0.292E-01
DAV:  23    -0.868692236615E+02    0.39606E-04   -0.30157E-03  3264   0.235E-01    0.931E-02
DAV:  24    -0.868693338779E+02   -0.11022E-03   -0.40385E-04  3104   0.844E-02    0.418E-02
DAV:  25    -0.868693677152E+02   -0.33837E-04   -0.57003E-04  3328   0.841E-02    0.437E-02
DAV:  26    -0.868693576646E+02    0.10051E-04   -0.49411E-05  2753   0.404E-02    0.320E-02
DAV:  27    -0.868693486793E+02    0.89853E-05   -0.34953E-05  2776   0.218E-02    0.122E-02
DAV:  28    -0.868693473232E+02    0.13562E-05   -0.72299E-06  1678   0.118E-02
   1 F= -.86869347E+02 E0= -.86869838E+02  d E =0.147307E-02
 running on   16 total cores
 distrk:  each k-point on    8 cores,    2 groups
 distr:  one band on    8 cores,    1 groups
 using from now: INCAR     
 vasp.5.4.4.18Apr17-6-g9f103f2a35 (build Nov 27 2019 20:08:17) complex          
  
 POSCAR found type information on POSCAR  Ti
 POSCAR found :  1 types and      12 ions
 scaLAPACK will be used

 ----------------------------------------------------------------------------- 
|                                                                             |
|           W    W    AA    RRRRR   N    N  II  N    N   GGGG   !!!           |
|           W    W   A  A   R    R  NN   N  II  NN   N  G    G  !!!           |
|           W    W  A    A  R    R  N N  N  II  N N  N  G       !!!           |
|           W WW W  AAAAAA  RRRRR   N  N N  II  N  N N  G  GGG   !            |
|           WW  WW  A    A  R   R   N   NN  II  N   NN  G    G                |
|           W    W  A    A  R    R  N    N  II  N    N   GGGG   !!!           |
|                                                                             |
|      You have enabled k-point parallelism (KPAR>1).                         |
|      This developmental code was originally  written by Paul Kent at ORNL,  |
|      and carefully double checked in Vienna.                                |
|      GW as well as linear response parallelism added by Martijn Marsman     |
|      and Georg Kresse.                                                      |
|      Carefully verify results versus KPAR=1.                                |
|      Report problems to Paul Kent and Vienna.                               |
|                                                                             |
 ----------------------------------------------------------------------------- 

 LDA part: xc-table for Pade appr. of Perdew
 POSCAR found type information on POSCAR  Ti
 POSCAR found :  1 types and      12 ions
 POSCAR, INCAR and KPOINTS ok, starting setup
 FFT: planning ...
 WAVECAR not read
 WARNING: random wavefunctions but no delay for mixing, default for NELMDL
 entering main loop
       N       E                     dE             d eps       ncg     rms          rms(c)
DAV:   1     0.173474290407E+03    0.17347E+03   -0.12435E+04  1984   0.963E+02
DAV:   2    -0.722244351100E+02   -0.24570E+03   -0.23593E+03  1984   0.224E+02
DAV:   3    -0.108454726585E+03   -0.36230E+02   -0.33337E+02  3032   0.751E+01
DAV:   4    -0.110625268854E+03   -0.21705E+01   -0.20218E+01  2914   0.221E+01
DAV:   5    -0.110713872547E+03   -0.88604E-01   -0.86686E-01  2935   0.393E+00    0.386E+01
DAV:   6    -0.166507736540E+03   -0.55794E+02   -0.83293E+02  3891   0.806E+01    0.635E+01
DAV:   7    -0.925489867821E+02    0.73959E+02   -0.11894E+03  3835   0.134E+02    0.198E+01
DAV:   8    -0.931479669350E+02   -0.59898E+00   -0.16234E+02  3181   0.644E+01    0.182E+01
DAV:   9    -0.903108594919E+02    0.28371E+01   -0.23929E+01  3250   0.232E+01    0.134E+01
DAV:  10    -0.895027700791E+02    0.80809E+00   -0.24758E+00  3124   0.576E+00    0.117E+01
DAV:  11    -0.873466804845E+02    0.21561E+01   -0.32265E+00  2914   0.100E+01    0.685E+00
DAV:  12    -0.862929785935E+02    0.10537E+01   -0.47881E+00  3273   0.101E+01    0.190E+00
DAV:  13    -0.863512199335E+02   -0.58241E-01   -0.41133E-01  3085   0.294E+00    0.213E+00
DAV:  14    -0.862749055916E+02    0.76314E-01   -0.80134E-01  2930   0.462E+00    0.111E+00
DAV:  15    -0.862617361802E+02    0.13169E-01   -0.12419E-01  2676   0.206E+00    0.437E-01
DAV:  16    -0.862666471672E+02   -0.49110E-02   -0.91925E-02  3256   0.125E+00    0.567E-01
DAV:  17    -0.862634836811E+02    0.31635E-02   -0.31773E-02  3153   0.761E-01    0.798E-02
DAV:  18    -0.862682842754E+02   -0.48006E-02   -0.17793E-02  3377   0.553E-01    0.352E-01
DAV:  19    -0.862673852760E+02    0.89900E-03   -0.11895E-02  3096   0.483E-01    0.540E-02
DAV:  20    -0.862678404679E+02   -0.45519E-03   -0.95719E-04  2764   0.159E-01    0.473E-02
DAV:  21    -0.862678804221E+02   -0.39954E-04   -0.11837E-04  2968   0.552E-02    0.277E-02
DAV:  22    -0.862678920391E+02   -0.11617E-04   -0.12235E-04  3068   0.523E-02    0.547E-03
DAV:  23    -0.862678953835E+02   -0.33444E-05   -0.98135E-06  1844   0.195E-02
   1 F= -.86267895E+02 E0= -.86269060E+02  d E =0.349498E-02
 running on   16 total cores
 distrk:  each k-point on    8 cores,    2 groups
 distr:  one band on    8 cores,    1 groups
 using from now: INCAR     
 vasp.5.4.4.18Apr17-6-g9f103f2a35 (build Nov 27 2019 20:08:17) complex          
  
 POSCAR found type information on POSCAR  Ti
 POSCAR found :  1 types and      24 ions
 scaLAPACK will be used

 ----------------------------------------------------------------------------- 
|                                                                             |
|           W    W    AA    RRRRR   N    N  II  N    N   GGGG   !!!           |
|           W    W   A  A   R    R  NN   N  II  NN   N  G    G  !!!           |
|           W    W  A    A  R    R  N N  N  II  N N  N  G       !!!           |
|           W WW W  AAAAAA  RRRRR   N  N N  II  N  N N  G  GGG   !            |
|           WW  WW  A    A  R   R   N   NN  II  N   NN  G    G                |
|           W    W  A    A  R    R  N    N  II  N    N   GGGG   !!!           |
|                                                                             |
|      You have enabled k-point parallelism (KPAR>1).                         |
|      This developmental code was originally  written by Paul Kent at ORNL,  |
|      and carefully double checked in Vienna.                                |
|      GW as well as linear response parallelism added by Martijn Marsman     |
|      and Georg Kresse.                                                      |
|      Carefully verify results versus KPAR=1.                                |
|      Report problems to Paul Kent and Vienna.                               |
|                                                                             |
 ----------------------------------------------------------------------------- 

 LDA part: xc-table for Pade appr. of Perdew
 POSCAR found type information on POSCAR  Ti
 POSCAR found :  1 types and      24 ions

 ----------------------------------------------------------------------------- 
|                                                                             |
|           W    W    AA    RRRRR   N    N  II  N    N   GGGG   !!!           |
|           W    W   A  A   R    R  NN   N  II  NN   N  G    G  !!!           |
|           W    W  A    A  R    R  N N  N  II  N N  N  G       !!!           |
|           W WW W  AAAAAA  RRRRR   N  N N  II  N  N N  G  GGG   !            |
|           WW  WW  A    A  R   R   N   NN  II  N   NN  G    G                |
|           W    W  A    A  R    R  N    N  II  N    N   GGGG   !!!           |
|                                                                             |
|      The distance between some ions is very small                           |
|      please check the nearest neigbor list in the OUTCAR file               |
|          I HOPE YOU KNOW, WHAT YOU ARE  DOING                               |
|                                                                             |
 ----------------------------------------------------------------------------- 

 POSCAR, INCAR and KPOINTS ok, starting setup
 FFT: planning ...
 WAVECAR not read
 WARNING: random wavefunctions but no delay for mixing, default for NELMDL
 entering main loop
       N       E                     dE             d eps       ncg     rms          rms(c)
DAV:   1     0.411356118285E+03    0.41136E+03   -0.26496E+04  3904   0.110E+03
DAV:   2    -0.121223289343E+03   -0.53258E+03   -0.51852E+03  3904   0.281E+02
DAV:   3    -0.185107261455E+03   -0.63884E+02   -0.60290E+02  5704   0.958E+01
DAV:   4    -0.188797192801E+03   -0.36899E+01   -0.34919E+01  5344   0.216E+01
DAV:   5    -0.188959170381E+03   -0.16198E+00   -0.15798E+00  5496   0.381E+00    0.718E+01
DAV:   6    -0.564126685733E+03   -0.37517E+03   -0.90190E+03  6325   0.379E+02    0.904E+01
DAV:   7    -0.382354348324E+03    0.18177E+03   -0.32584E+03  6735   0.258E+02    0.935E+01
DAV:   8    -0.132626094996E+03    0.24973E+03   -0.11103E+03  6444   0.132E+02    0.474E+01
DAV:   9    -0.133750286964E+03   -0.11242E+01   -0.18255E+02  6176   0.466E+01    0.483E+01
DAV:  10    -0.145452681769E+03   -0.11702E+02   -0.20525E+01  6136   0.160E+01    0.524E+01
DAV:  11    -0.149841490104E+03   -0.43888E+01   -0.21992E+00  5920   0.562E+00    0.540E+01
DAV:  12    -0.964264219675E+02    0.53415E+02   -0.82711E+01  6144   0.381E+01    0.312E+01
DAV:  13    -0.115429151775E+03   -0.19003E+02   -0.43494E+02  7341   0.667E+01    0.467E+01
DAV:  14    -0.999632560533E+02    0.15466E+02   -0.81828E+01  6432   0.328E+01    0.377E+01
DAV:  15    -0.849064295448E+02    0.15057E+02   -0.35126E+01  6664   0.215E+01    0.215E+01
DAV:  16    -0.837020896608E+02    0.12043E+01   -0.10960E+01  6688   0.123E+01    0.162E+01
DAV:  17    -0.838286005559E+02   -0.12651E+00   -0.10247E+00  5992   0.448E+00    0.160E+01
DAV:  18    -0.868990985432E+02   -0.30705E+01   -0.61948E+00  6110   0.825E+00    0.200E+01
DAV:  19    -0.864586982146E+02    0.44040E+00   -0.32663E+00  6400   0.717E+00    0.193E+01
DAV:  20    -0.817603056934E+02    0.46984E+01   -0.12588E+01  6544   0.133E+01    0.705E+00
DAV:  21    -0.818693604423E+02   -0.10905E+00   -0.13623E+00  6144   0.422E+00    0.614E+00
DAV:  22    -0.819330770266E+02   -0.63717E-01   -0.88609E-02  6264   0.105E+00    0.637E+00
DAV:  23    -0.817176937824E+02    0.21538E+00   -0.46007E-01  6496   0.254E+00    0.415E+00
DAV:  24    -0.817229660197E+02   -0.52722E-02   -0.14367E-01  6207   0.183E+00    0.373E+00
DAV:  25    -0.816841400777E+02    0.38826E-01   -0.23251E-02  5728   0.588E-01    0.306E+00
DAV:  26    -0.816411090702E+02    0.43031E-01   -0.43514E-02  6744   0.650E-01    0.210E+00
DAV:  27    -0.816506456542E+02   -0.95366E-02   -0.44393E-02  6376   0.964E-01    0.196E+00
DAV:  28    -0.816223048759E+02    0.28341E-01   -0.38010E-02  6576   0.755E-01    0.947E-01
DAV:  29    -0.816152630644E+02    0.70418E-02   -0.23382E-02  6760   0.510E-01    0.499E-01
DAV:  30    -0.816145780727E+02    0.68499E-03   -0.24661E-03  5544   0.201E-01    0.371E-01
DAV:  31    -0.816145321609E+02    0.45912E-04   -0.13957E-03  6856   0.132E-01    0.357E-01
DAV:  32    -0.816136768658E+02    0.85530E-03   -0.21194E-03  5923   0.188E-01    0.177E-01
DAV:  33    -0.816137806014E+02   -0.10374E-03   -0.19136E-04  5784   0.576E-02    0.196E-01
DAV:  34    -0.816134808965E+02    0.29970E-03   -0.30977E-04  6712   0.701E-02    0.118E-01
DAV:  35    -0.816134379582E+02    0.42938E-04   -0.63635E-05  5624   0.331E-02    0.103E-01
DAV:  36    -0.816133731416E+02    0.64817E-04   -0.56279E-05  5424   0.281E-02    0.688E-02
DAV:  37    -0.816133210081E+02    0.52134E-04   -0.19030E-04  6672   0.505E-02    0.751E-03
DAV:  38    -0.816133210945E+02   -0.86421E-07   -0.97404E-06  3264   0.151E-02
   1 F= -.81613321E+02 E0= -.81614028E+02  d E =0.212159E-02
Distance=1.500
 running on   16 total cores
 distrk:  each k-point on    8 cores,    2 groups
 distr:  one band on    8 cores,    1 groups
 using from now: INCAR     
 vasp.5.4.4.18Apr17-6-g9f103f2a35 (build Nov 27 2019 20:08:17) complex          
  
 POSCAR found type information on POSCAR  Ti
 POSCAR found :  1 types and      12 ions
 scaLAPACK will be used

 ----------------------------------------------------------------------------- 
|                                                                             |
|           W    W    AA    RRRRR   N    N  II  N    N   GGGG   !!!           |
|           W    W   A  A   R    R  NN   N  II  NN   N  G    G  !!!           |
|           W    W  A    A  R    R  N N  N  II  N N  N  G       !!!           |
|           W WW W  AAAAAA  RRRRR   N  N N  II  N  N N  G  GGG   !            |
|           WW  WW  A    A  R   R   N   NN  II  N   NN  G    G                |
|           W    W  A    A  R    R  N    N  II  N    N   GGGG   !!!           |
|                                                                             |
|      You have enabled k-point parallelism (KPAR>1).                         |
|      This developmental code was originally  written by Paul Kent at ORNL,  |
|      and carefully double checked in Vienna.                                |
|      GW as well as linear response parallelism added by Martijn Marsman     |
|      and Georg Kresse.                                                      |
|      Carefully verify results versus KPAR=1.                                |
|      Report problems to Paul Kent and Vienna.                               |
|                                                                             |
 ----------------------------------------------------------------------------- 

 LDA part: xc-table for Pade appr. of Perdew
 POSCAR found type information on POSCAR  Ti
 POSCAR found :  1 types and      12 ions
 POSCAR, INCAR and KPOINTS ok, starting setup
 FFT: planning ...
 WAVECAR not read
 WARNING: random wavefunctions but no delay for mixing, default for NELMDL
 entering main loop
       N       E                     dE             d eps       ncg     rms          rms(c)
DAV:   1     0.193176044792E+03    0.19318E+03   -0.12509E+04  1984   0.955E+02
DAV:   2    -0.686590053133E+02   -0.26184E+03   -0.25161E+03  1999   0.227E+02
DAV:   3    -0.105330961267E+03   -0.36672E+02   -0.34288E+02  3040   0.766E+01
DAV:   4    -0.107992254233E+03   -0.26613E+01   -0.25250E+01  3072   0.231E+01
DAV:   5    -0.108119811242E+03   -0.12756E+00   -0.12434E+00  3185   0.439E+00    0.427E+01
DAV:   6    -0.150636131788E+03   -0.42516E+02   -0.72283E+02  3868   0.816E+01    0.603E+01
DAV:   7    -0.980459152024E+02    0.52590E+02   -0.12819E+03  3716   0.152E+02    0.214E+01
DAV:   8    -0.924444629813E+02    0.56015E+01   -0.14348E+02  3111   0.649E+01    0.183E+01
DAV:   9    -0.908079451470E+02    0.16365E+01   -0.95013E+00  3376   0.115E+01    0.147E+01
DAV:  10    -0.903463468431E+02    0.46160E+00   -0.45382E-01  3304   0.258E+00    0.137E+01
DAV:  11    -0.871869761886E+02    0.31594E+01   -0.91428E+00  3008   0.171E+01    0.412E+00
DAV:  12    -0.870950763556E+02    0.91900E-01   -0.15891E+00  3336   0.591E+00    0.351E+00
DAV:  13    -0.870762017397E+02    0.18875E-01   -0.32127E-01  3280   0.279E+00    0.309E+00
DAV:  14    -0.868794002558E+02    0.19680E+00   -0.65032E-01  2768   0.493E+00    0.121E+00
DAV:  15    -0.868747878766E+02    0.46124E-02   -0.29257E-01  3368   0.249E+00    0.831E-01
DAV:  16    -0.868654016513E+02    0.93862E-02   -0.82763E-02  3209   0.134E+00    0.254E-01
DAV:  17    -0.868664609126E+02   -0.10593E-02   -0.13147E-02  3232   0.574E-01    0.184E-01
DAV:  18    -0.868668440391E+02   -0.38313E-03   -0.34188E-03  3216   0.267E-01    0.892E-02
DAV:  19    -0.868684357677E+02   -0.15917E-02   -0.97513E-04  2473   0.127E-01    0.780E-02
DAV:  20    -0.868692686893E+02   -0.83292E-03   -0.71467E-04  2776   0.146E-01    0.516E-02
DAV:  21    -0.868700081659E+02   -0.73948E-03   -0.52130E-04  2418   0.132E-01    0.490E-02
DAV:  22    -0.868701201042E+02   -0.11194E-03   -0.38479E-04  3304   0.963E-02    0.302E-02
DAV:  23    -0.868701757963E+02   -0.55692E-04   -0.75572E-05  2560   0.477E-02    0.196E-02
DAV:  24    -0.868701733497E+02    0.24465E-05   -0.12003E-05  2008   0.192E-02
   1 F= -.86870173E+02 E0= -.86870657E+02  d E =0.145036E-02
 running on   16 total cores
 distrk:  each k-point on    8 cores,    2 groups
 distr:  one band on    8 cores,    1 groups
 using from now: INCAR     
 vasp.5.4.4.18Apr17-6-g9f103f2a35 (build Nov 27 2019 20:08:17) complex          
  
 POSCAR found type information on POSCAR  Ti
 POSCAR found :  1 types and      12 ions
 scaLAPACK will be used

 ----------------------------------------------------------------------------- 
|                                                                             |
|           W    W    AA    RRRRR   N    N  II  N    N   GGGG   !!!           |
|           W    W   A  A   R    R  NN   N  II  NN   N  G    G  !!!           |
|           W    W  A    A  R    R  N N  N  II  N N  N  G       !!!           |
|           W WW W  AAAAAA  RRRRR   N  N N  II  N  N N  G  GGG   !            |
|           WW  WW  A    A  R   R   N   NN  II  N   NN  G    G                |
|           W    W  A    A  R    R  N    N  II  N    N   GGGG   !!!           |
|                                                                             |
|      You have enabled k-point parallelism (KPAR>1).                         |
|      This developmental code was originally  written by Paul Kent at ORNL,  |
|      and carefully double checked in Vienna.                                |
|      GW as well as linear response parallelism added by Martijn Marsman     |
|      and Georg Kresse.                                                      |
|      Carefully verify results versus KPAR=1.                                |
|      Report problems to Paul Kent and Vienna.                               |
|                                                                             |
 ----------------------------------------------------------------------------- 

 LDA part: xc-table for Pade appr. of Perdew
 POSCAR found type information on POSCAR  Ti
 POSCAR found :  1 types and      12 ions
 POSCAR, INCAR and KPOINTS ok, starting setup
 FFT: planning ...
 WAVECAR not read
 WARNING: random wavefunctions but no delay for mixing, default for NELMDL
 entering main loop
       N       E                     dE             d eps       ncg     rms          rms(c)
DAV:   1     0.177545323651E+03    0.17755E+03   -0.12375E+04  1984   0.954E+02
DAV:   2    -0.717736810570E+02   -0.24932E+03   -0.23944E+03  1984   0.224E+02
DAV:   3    -0.108406473193E+03   -0.36633E+02   -0.33807E+02  3008   0.746E+01
DAV:   4    -0.110629912168E+03   -0.22234E+01   -0.20781E+01  2992   0.227E+01
DAV:   5    -0.110714812142E+03   -0.84900E-01   -0.83458E-01  2990   0.394E+00    0.386E+01
DAV:   6    -0.165332713612E+03   -0.54618E+02   -0.82113E+02  3891   0.802E+01    0.632E+01
DAV:   7    -0.935088528235E+02    0.71824E+02   -0.12128E+03  3842   0.135E+02    0.202E+01
DAV:   8    -0.930330852849E+02    0.47577E+00   -0.15848E+02  3125   0.644E+01    0.180E+01
DAV:   9    -0.903669163235E+02    0.26662E+01   -0.22275E+01  3334   0.221E+01    0.135E+01
DAV:  10    -0.895769021658E+02    0.79001E+00   -0.25186E+00  3135   0.579E+00    0.119E+01
DAV:  11    -0.872692015163E+02    0.23077E+01   -0.38369E+00  2949   0.111E+01    0.664E+00
DAV:  12    -0.862898905601E+02    0.97931E+00   -0.44601E+00  3273   0.961E+00    0.190E+00
DAV:  13    -0.863453517725E+02   -0.55461E-01   -0.33842E-01  3049   0.272E+00    0.209E+00
DAV:  14    -0.862799188717E+02    0.65433E-01   -0.83924E-01  2994   0.467E+00    0.119E+00
DAV:  15    -0.862629029269E+02    0.17016E-01   -0.15906E-01  2775   0.221E+00    0.389E-01
DAV:  16    -0.862660790443E+02   -0.31761E-02   -0.74737E-02  3296   0.118E+00    0.523E-01
DAV:  17    -0.862635802791E+02    0.24988E-02   -0.14930E-02  3098   0.526E-01    0.191E-01
DAV:  18    -0.862668045830E+02   -0.32243E-02   -0.25833E-02  3352   0.631E-01    0.334E-01
DAV:  19    -0.862665793063E+02    0.22528E-03   -0.82413E-03  3078   0.387E-01    0.968E-02
DAV:  20    -0.862672239180E+02   -0.64461E-03   -0.17186E-03  2866   0.218E-01    0.234E-02
DAV:  21    -0.862674807974E+02   -0.25688E-03   -0.21101E-04  2592   0.782E-02    0.263E-02
DAV:  22    -0.862675920569E+02   -0.11126E-03   -0.12795E-04  2445   0.625E-02    0.182E-02
DAV:  23    -0.862675918848E+02    0.17206E-06   -0.41499E-05  2794   0.309E-02
   1 F= -.86267592E+02 E0= -.86268752E+02  d E =0.348057E-02
 running on   16 total cores
 distrk:  each k-point on    8 cores,    2 groups
 distr:  one band on    8 cores,    1 groups
 using from now: INCAR     
 vasp.5.4.4.18Apr17-6-g9f103f2a35 (build Nov 27 2019 20:08:17) complex          
  
 POSCAR found type information on POSCAR  Ti
 POSCAR found :  1 types and      24 ions
 scaLAPACK will be used

 ----------------------------------------------------------------------------- 
|                                                                             |
|           W    W    AA    RRRRR   N    N  II  N    N   GGGG   !!!           |
|           W    W   A  A   R    R  NN   N  II  NN   N  G    G  !!!           |
|           W    W  A    A  R    R  N N  N  II  N N  N  G       !!!           |
|           W WW W  AAAAAA  RRRRR   N  N N  II  N  N N  G  GGG   !            |
|           WW  WW  A    A  R   R   N   NN  II  N   NN  G    G                |
|           W    W  A    A  R    R  N    N  II  N    N   GGGG   !!!           |
|                                                                             |
|      You have enabled k-point parallelism (KPAR>1).                         |
|      This developmental code was originally  written by Paul Kent at ORNL,  |
|      and carefully double checked in Vienna.                                |
|      GW as well as linear response parallelism added by Martijn Marsman     |
|      and Georg Kresse.                                                      |
|      Carefully verify results versus KPAR=1.                                |
|      Report problems to Paul Kent and Vienna.                               |
|                                                                             |
 ----------------------------------------------------------------------------- 

 LDA part: xc-table for Pade appr. of Perdew
 POSCAR found type information on POSCAR  Ti
 POSCAR found :  1 types and      24 ions

 ----------------------------------------------------------------------------- 
|                                                                             |
|           W    W    AA    RRRRR   N    N  II  N    N   GGGG   !!!           |
|           W    W   A  A   R    R  NN   N  II  NN   N  G    G  !!!           |
|           W    W  A    A  R    R  N N  N  II  N N  N  G       !!!           |
|           W WW W  AAAAAA  RRRRR   N  N N  II  N  N N  G  GGG   !            |
|           WW  WW  A    A  R   R   N   NN  II  N   NN  G    G                |
|           W    W  A    A  R    R  N    N  II  N    N   GGGG   !!!           |
|                                                                             |
|      The distance between some ions is very small                           |
|      please check the nearest neigbor list in the OUTCAR file               |
|          I HOPE YOU KNOW, WHAT YOU ARE  DOING                               |
|                                                                             |
 ----------------------------------------------------------------------------- 

 POSCAR, INCAR and KPOINTS ok, starting setup
 FFT: planning ...
 WAVECAR not read
 WARNING: random wavefunctions but no delay for mixing, default for NELMDL
 entering main loop
       N       E                     dE             d eps       ncg     rms          rms(c)
DAV:   1     0.362971414014E+03    0.36297E+03   -0.25274E+04  3904   0.108E+03
DAV:   2    -0.129818368653E+03   -0.49279E+03   -0.47752E+03  3904   0.256E+02
DAV:   3    -0.196954113062E+03   -0.67136E+02   -0.62619E+02  5720   0.878E+01
DAV:   4    -0.201641552552E+03   -0.46874E+01   -0.44470E+01  5584   0.251E+01
DAV:   5    -0.201832433264E+03   -0.19088E+00   -0.18589E+00  5624   0.406E+00    0.556E+01
DAV:   6    -0.442051487135E+03   -0.24022E+03   -0.27861E+03  7803   0.158E+02    0.998E+01
DAV:   7    -0.269826383880E+03    0.17223E+03   -0.39354E+03  7438   0.161E+02    0.655E+01
DAV:   8    -0.176105279004E+03    0.93721E+02   -0.12148E+03  6648   0.147E+02    0.307E+01
DAV:   9    -0.176453859893E+03   -0.34858E+00   -0.25844E+02  6104   0.723E+01    0.279E+01
DAV:  10    -0.168853343995E+03    0.76005E+01   -0.51014E+01  6024   0.298E+01    0.170E+01
DAV:  11    -0.168287292487E+03    0.56605E+00   -0.37534E+00  6112   0.691E+00    0.148E+01
DAV:  12    -0.167566702243E+03    0.72059E+00   -0.34405E+00  5723   0.741E+00    0.116E+01
DAV:  13    -0.167157586203E+03    0.40912E+00   -0.78192E+00  5880   0.104E+01    0.103E+01
DAV:  14    -0.166697317847E+03    0.46027E+00   -0.12424E+00  5992   0.458E+00    0.821E+00
DAV:  15    -0.166395694723E+03    0.30162E+00   -0.22071E-01  5360   0.225E+00    0.669E+00
DAV:  16    -0.165916078397E+03    0.47962E+00   -0.10341E+00  4648   0.471E+00    0.307E+00
DAV:  17    -0.165830306157E+03    0.85772E-01   -0.36535E-01  5552   0.246E+00    0.143E+00
DAV:  18    -0.165818302359E+03    0.12004E-01   -0.13090E-01  5424   0.158E+00    0.425E-01
DAV:  19    -0.165819584058E+03   -0.12817E-02   -0.54418E-03  6288   0.247E-01    0.481E-01
DAV:  20    -0.165819999969E+03   -0.41591E-03   -0.27429E-03  6560   0.201E-01    0.505E-01
DAV:  21    -0.165817418091E+03    0.25819E-02   -0.26169E-02  5560   0.747E-01    0.349E-01
DAV:  22    -0.165817005037E+03    0.41305E-03   -0.40788E-03  5360   0.356E-01    0.249E-01
DAV:  23    -0.165816902618E+03    0.10242E-03   -0.53389E-04  4992   0.109E-01    0.225E-01
DAV:  24    -0.165816586357E+03    0.31626E-03   -0.81129E-04  6328   0.112E-01    0.132E-01
DAV:  25    -0.165816525485E+03    0.60873E-04   -0.22966E-04  5784   0.625E-02    0.774E-02
DAV:  26    -0.165816504708E+03    0.20776E-04   -0.37953E-05  5360   0.224E-02    0.597E-02
DAV:  27    -0.165816488168E+03    0.16540E-04   -0.34450E-05  5344   0.188E-02    0.330E-02
DAV:  28    -0.165816482171E+03    0.59972E-05   -0.12286E-05  3224   0.139E-02    0.151E-02
DAV:  29    -0.165816482505E+03   -0.33382E-06   -0.34549E-06  2438   0.746E-03
   1 F= -.16581648E+03 E0= -.16581563E+03  d E =-.254359E-02
Distance=2.000
 running on   16 total cores
 distrk:  each k-point on    8 cores,    2 groups
 distr:  one band on    8 cores,    1 groups
 using from now: INCAR     
 vasp.5.4.4.18Apr17-6-g9f103f2a35 (build Nov 27 2019 20:08:17) complex          
  
 POSCAR found type information on POSCAR  Ti
 POSCAR found :  1 types and      12 ions
 scaLAPACK will be used

 ----------------------------------------------------------------------------- 
|                                                                             |
|           W    W    AA    RRRRR   N    N  II  N    N   GGGG   !!!           |
|           W    W   A  A   R    R  NN   N  II  NN   N  G    G  !!!           |
|           W    W  A    A  R    R  N N  N  II  N N  N  G       !!!           |
|           W WW W  AAAAAA  RRRRR   N  N N  II  N  N N  G  GGG   !            |
|           WW  WW  A    A  R   R   N   NN  II  N   NN  G    G                |
|           W    W  A    A  R    R  N    N  II  N    N   GGGG   !!!           |
|                                                                             |
|      You have enabled k-point parallelism (KPAR>1).                         |
|      This developmental code was originally  written by Paul Kent at ORNL,  |
|      and carefully double checked in Vienna.                                |
|      GW as well as linear response parallelism added by Martijn Marsman     |
|      and Georg Kresse.                                                      |
|      Carefully verify results versus KPAR=1.                                |
|      Report problems to Paul Kent and Vienna.                               |
|                                                                             |
 ----------------------------------------------------------------------------- 

 LDA part: xc-table for Pade appr. of Perdew
 POSCAR found type information on POSCAR  Ti
 POSCAR found :  1 types and      12 ions
 POSCAR, INCAR and KPOINTS ok, starting setup
 FFT: planning ...
 WAVECAR not read
 WARNING: random wavefunctions but no delay for mixing, default for NELMDL
 entering main loop
       N       E                     dE             d eps       ncg     rms          rms(c)
DAV:   1     0.196557165528E+03    0.19656E+03   -0.12518E+04  1984   0.949E+02
DAV:   2    -0.684051438538E+02   -0.26496E+03   -0.25406E+03  1998   0.227E+02
DAV:   3    -0.105282212023E+03   -0.36877E+02   -0.34433E+02  3016   0.762E+01
DAV:   4    -0.107970216165E+03   -0.26880E+01   -0.25480E+01  3080   0.232E+01
DAV:   5    -0.108118934014E+03   -0.14872E+00   -0.14422E+00  3224   0.456E+00    0.427E+01
DAV:   6    -0.149262382419E+03   -0.41143E+02   -0.70788E+02  3855   0.810E+01    0.596E+01
DAV:   7    -0.989871722915E+02    0.50275E+02   -0.12975E+03  3742   0.154E+02    0.218E+01
DAV:   8    -0.925272647397E+02    0.64599E+01   -0.14586E+02  3152   0.659E+01    0.184E+01
DAV:   9    -0.910346226668E+02    0.14926E+01   -0.95900E+00  3368   0.118E+01    0.151E+01
DAV:  10    -0.903782102369E+02    0.65641E+00   -0.78770E-01  3321   0.429E+00    0.139E+01
DAV:  11    -0.891868365810E+02    0.11914E+01   -0.75430E-01  3048   0.481E+00    0.111E+01
DAV:  12    -0.870163091101E+02    0.21705E+01   -0.68424E+00  3216   0.143E+01    0.294E+00
DAV:  13    -0.871922548219E+02   -0.17595E+00   -0.91439E-01  3088   0.501E+00    0.405E+00
DAV:  14    -0.868599368621E+02    0.33232E+00   -0.18901E+00  3201   0.691E+00    0.314E-01
DAV:  15    -0.868657456363E+02   -0.58088E-02   -0.81730E-02  3216   0.118E+00    0.258E-01
DAV:  16    -0.868686841951E+02   -0.29386E-02   -0.33604E-02  3296   0.779E-01    0.422E-01
DAV:  17    -0.868677728936E+02    0.91130E-03   -0.39447E-02  3065   0.106E+00    0.208E-01
DAV:  18    -0.868677892438E+02   -0.16350E-04   -0.22709E-03  2992   0.240E-01    0.138E-01
DAV:  19    -0.868685681166E+02   -0.77887E-03   -0.98413E-04  3016   0.151E-01    0.547E-02
DAV:  20    -0.868694942730E+02   -0.92616E-03   -0.78638E-04  3056   0.124E-01    0.938E-02
DAV:  21    -0.868698444630E+02   -0.35019E-03   -0.10940E-03  2968   0.174E-01    0.955E-03
DAV:  22    -0.868700007317E+02   -0.15627E-03   -0.14849E-04  3208   0.525E-02    0.283E-02
DAV:  23    -0.868700298780E+02   -0.29146E-04   -0.35011E-05  2624   0.273E-02    0.159E-02
DAV:  24    -0.868700318221E+02   -0.19440E-05   -0.19283E-05  2248   0.286E-02
   1 F= -.86870032E+02 E0= -.86870512E+02  d E =0.144022E-02
 running on   16 total cores
 distrk:  each k-point on    8 cores,    2 groups
 distr:  one band on    8 cores,    1 groups
 using from now: INCAR     
 vasp.5.4.4.18Apr17-6-g9f103f2a35 (build Nov 27 2019 20:08:17) complex          
  
 POSCAR found type information on POSCAR  Ti
 POSCAR found :  1 types and      12 ions
 scaLAPACK will be used

 ----------------------------------------------------------------------------- 
|                                                                             |
|           W    W    AA    RRRRR   N    N  II  N    N   GGGG   !!!           |
|           W    W   A  A   R    R  NN   N  II  NN   N  G    G  !!!           |
|           W    W  A    A  R    R  N N  N  II  N N  N  G       !!!           |
|           W WW W  AAAAAA  RRRRR   N  N N  II  N  N N  G  GGG   !            |
|           WW  WW  A    A  R   R   N   NN  II  N   NN  G    G                |
|           W    W  A    A  R    R  N    N  II  N    N   GGGG   !!!           |
|                                                                             |
|      You have enabled k-point parallelism (KPAR>1).                         |
|      This developmental code was originally  written by Paul Kent at ORNL,  |
|      and carefully double checked in Vienna.                                |
|      GW as well as linear response parallelism added by Martijn Marsman     |
|      and Georg Kresse.                                                      |
|      Carefully verify results versus KPAR=1.                                |
|      Report problems to Paul Kent and Vienna.                               |
|                                                                             |
 ----------------------------------------------------------------------------- 

 LDA part: xc-table for Pade appr. of Perdew
 POSCAR found type information on POSCAR  Ti
 POSCAR found :  1 types and      12 ions
 POSCAR, INCAR and KPOINTS ok, starting setup
 FFT: planning ...
 WAVECAR not read
 WARNING: random wavefunctions but no delay for mixing, default for NELMDL
 entering main loop
       N       E                     dE             d eps       ncg     rms          rms(c)
DAV:   1     0.181743116012E+03    0.18174E+03   -0.12406E+04  1984   0.949E+02
DAV:   2    -0.718120903058E+02   -0.25356E+03   -0.24361E+03  1992   0.224E+02
DAV:   3    -0.108448300402E+03   -0.36636E+02   -0.33924E+02  3064   0.743E+01
DAV:   4    -0.110621476558E+03   -0.21732E+01   -0.20405E+01  2961   0.223E+01
DAV:   5    -0.110709464013E+03   -0.87987E-01   -0.85912E-01  2959   0.393E+00    0.386E+01
DAV:   6    -0.163671388419E+03   -0.52962E+02   -0.80432E+02  3904   0.795E+01    0.628E+01
DAV:   7    -0.944692832621E+02    0.69202E+02   -0.12282E+03  3842   0.136E+02    0.205E+01
DAV:   8    -0.929170706863E+02    0.15522E+01   -0.15514E+02  3149   0.642E+01    0.178E+01
DAV:   9    -0.904157463146E+02    0.25013E+01   -0.20653E+01  3318   0.208E+01    0.135E+01
DAV:  10    -0.896576180571E+02    0.75813E+00   -0.24604E+00  3140   0.570E+00    0.120E+01
DAV:  11    -0.876388036380E+02    0.20188E+01   -0.25517E+00  2782   0.916E+00    0.774E+00
DAV:  12    -0.862924588996E+02    0.13463E+01   -0.61695E+00  3250   0.113E+01    0.195E+00
DAV:  13    -0.863273740069E+02   -0.34915E-01   -0.31881E-01  3030   0.260E+00    0.195E+00
DAV:  14    -0.863060382563E+02    0.21336E-01   -0.11225E+00  2965   0.569E+00    0.186E+00
DAV:  15    -0.862668792126E+02    0.39159E-01   -0.38507E-01  2734   0.323E+00    0.656E-01
DAV:  16    -0.862611352059E+02    0.57440E-02   -0.63480E-02  3194   0.117E+00    0.285E-01
DAV:  17    -0.862674966951E+02   -0.63615E-02   -0.27272E-02  3355   0.770E-01    0.656E-01
DAV:  18    -0.862618442712E+02    0.56524E-02   -0.22995E-02  3175   0.625E-01    0.209E-01
DAV:  19    -0.862633674156E+02   -0.15231E-02   -0.10501E-02  3304   0.399E-01    0.185E-01
DAV:  20    -0.862633488795E+02    0.18536E-04   -0.39351E-03  2804   0.347E-01    0.353E-02
DAV:  21    -0.862642157724E+02   -0.86689E-03   -0.96323E-04  2956   0.154E-01    0.736E-02
DAV:  22    -0.862646485866E+02   -0.43281E-03   -0.43502E-04  2647   0.102E-01    0.254E-02
DAV:  23    -0.862646935428E+02   -0.44956E-04   -0.12555E-04  3330   0.451E-02    0.138E-02
DAV:  24    -0.862646991521E+02   -0.56094E-05   -0.64742E-06  1746   0.146E-02    0.107E-02
DAV:  25    -0.862646978583E+02    0.12939E-05   -0.70104E-06  1513   0.171E-02
   1 F= -.86264698E+02 E0= -.86265850E+02  d E =0.345727E-02
 running on   16 total cores
 distrk:  each k-point on    8 cores,    2 groups
 distr:  one band on    8 cores,    1 groups
 using from now: INCAR     
 vasp.5.4.4.18Apr17-6-g9f103f2a35 (build Nov 27 2019 20:08:17) complex          
  
 POSCAR found type information on POSCAR  Ti
 POSCAR found :  1 types and      24 ions
 scaLAPACK will be used

 ----------------------------------------------------------------------------- 
|                                                                             |
|           W    W    AA    RRRRR   N    N  II  N    N   GGGG   !!!           |
|           W    W   A  A   R    R  NN   N  II  NN   N  G    G  !!!           |
|           W    W  A    A  R    R  N N  N  II  N N  N  G       !!!           |
|           W WW W  AAAAAA  RRRRR   N  N N  II  N  N N  G  GGG   !            |
|           WW  WW  A    A  R   R   N   NN  II  N   NN  G    G                |
|           W    W  A    A  R    R  N    N  II  N    N   GGGG   !!!           |
|                                                                             |
|      You have enabled k-point parallelism (KPAR>1).                         |
|      This developmental code was originally  written by Paul Kent at ORNL,  |
|      and carefully double checked in Vienna.                                |
|      GW as well as linear response parallelism added by Martijn Marsman     |
|      and Georg Kresse.                                                      |
|      Carefully verify results versus KPAR=1.                                |
|      Report problems to Paul Kent and Vienna.                               |
|                                                                             |
 ----------------------------------------------------------------------------- 

 LDA part: xc-table for Pade appr. of Perdew
 POSCAR found type information on POSCAR  Ti
 POSCAR found :  1 types and      24 ions
 POSCAR, INCAR and KPOINTS ok, starting setup
 FFT: planning ...
 WAVECAR not read
 WARNING: random wavefunctions but no delay for mixing, default for NELMDL
 entering main loop
       N       E                     dE             d eps       ncg     rms          rms(c)
DAV:   1     0.347000617538E+03    0.34700E+03   -0.24865E+04  3904   0.106E+03
DAV:   2    -0.128333935824E+03   -0.47533E+03   -0.46108E+03  3904   0.250E+02
DAV:   3    -0.195638638305E+03   -0.67305E+02   -0.62657E+02  5976   0.836E+01
DAV:   4    -0.201089751072E+03   -0.54511E+01   -0.51342E+01  5976   0.238E+01
DAV:   5    -0.201351528505E+03   -0.26178E+00   -0.24956E+00  5912   0.401E+00    0.560E+01
DAV:   6    -0.247523017210E+03   -0.46171E+02   -0.42661E+02  7414   0.695E+01    0.419E+01
DAV:   7    -0.288887918206E+03   -0.41365E+02   -0.23489E+03  7395   0.111E+02    0.523E+01
DAV:   8    -0.164870011554E+03    0.12402E+03   -0.63730E+02  6842   0.892E+01    0.180E+01
DAV:   9    -0.179767416440E+03   -0.14897E+02   -0.16979E+02  6536   0.369E+01    0.170E+01
DAV:  10    -0.178085701605E+03    0.16817E+01   -0.20724E+01  6200   0.155E+01    0.142E+01
DAV:  11    -0.176370833605E+03    0.17149E+01   -0.35265E+00  5960   0.805E+00    0.872E+00
DAV:  12    -0.175955765970E+03    0.41507E+00   -0.71836E-01  6064   0.332E+00    0.656E+00
DAV:  13    -0.175514440988E+03    0.44132E+00   -0.84661E-01  5600   0.430E+00    0.326E+00
DAV:  14    -0.175426649177E+03    0.87792E-01   -0.64639E-01  6091   0.318E+00    0.210E+00
DAV:  15    -0.175360445331E+03    0.66204E-01   -0.51855E-01  5931   0.281E+00    0.706E-01
DAV:  16    -0.175359552531E+03    0.89280E-03   -0.46419E-02  5976   0.769E-01    0.579E-01
DAV:  17    -0.175355300548E+03    0.42520E-02   -0.18018E-02  6112   0.496E-01    0.317E-01
DAV:  18    -0.175355752820E+03   -0.45227E-03   -0.54492E-03  6056   0.288E-01    0.299E-01
DAV:  19    -0.175354215617E+03    0.15372E-02   -0.35672E-03  6392   0.236E-01    0.848E-02
DAV:  20    -0.175354255263E+03   -0.39646E-04   -0.28496E-04  5048   0.842E-02    0.865E-02
DAV:  21    -0.175354137112E+03    0.11815E-03   -0.29696E-04  6912   0.584E-02    0.245E-02
DAV:  22    -0.175354139580E+03   -0.24685E-05   -0.20946E-05  4240   0.248E-02
   1 F= -.17535414E+03 E0= -.17535378E+03  d E =-.109233E-02
Distance=2.500
 running on   16 total cores
 distrk:  each k-point on    8 cores,    2 groups
 distr:  one band on    8 cores,    1 groups
 using from now: INCAR     
 vasp.5.4.4.18Apr17-6-g9f103f2a35 (build Nov 27 2019 20:08:17) complex          
  
 POSCAR found type information on POSCAR  Ti
 POSCAR found :  1 types and      12 ions
 scaLAPACK will be used

 ----------------------------------------------------------------------------- 
|                                                                             |
|           W    W    AA    RRRRR   N    N  II  N    N   GGGG   !!!           |
|           W    W   A  A   R    R  NN   N  II  NN   N  G    G  !!!           |
|           W    W  A    A  R    R  N N  N  II  N N  N  G       !!!           |
|           W WW W  AAAAAA  RRRRR   N  N N  II  N  N N  G  GGG   !            |
|           WW  WW  A    A  R   R   N   NN  II  N   NN  G    G                |
|           W    W  A    A  R    R  N    N  II  N    N   GGGG   !!!           |
|                                                                             |
|      You have enabled k-point parallelism (KPAR>1).                         |
|      This developmental code was originally  written by Paul Kent at ORNL,  |
|      and carefully double checked in Vienna.                                |
|      GW as well as linear response parallelism added by Martijn Marsman     |
|      and Georg Kresse.                                                      |
|      Carefully verify results versus KPAR=1.                                |
|      Report problems to Paul Kent and Vienna.                               |
|                                                                             |
 ----------------------------------------------------------------------------- 

 LDA part: xc-table for Pade appr. of Perdew
 POSCAR found type information on POSCAR  Ti
 POSCAR found :  1 types and      12 ions
 POSCAR, INCAR and KPOINTS ok, starting setup
 FFT: planning ...
 WAVECAR not read
 WARNING: random wavefunctions but no delay for mixing, default for NELMDL
 entering main loop
       N       E                     dE             d eps       ncg     rms          rms(c)
DAV:   1     0.199177774322E+03    0.19918E+03   -0.12478E+04  1984   0.942E+02
DAV:   2    -0.677168812531E+02   -0.26689E+03   -0.25656E+03  2016   0.226E+02
DAV:   3    -0.105204050311E+03   -0.37487E+02   -0.34973E+02  3081   0.759E+01
DAV:   4    -0.107981878033E+03   -0.27778E+01   -0.26361E+01  3096   0.238E+01
DAV:   5    -0.108120092015E+03   -0.13821E+00   -0.13332E+00  3241   0.448E+00    0.427E+01
DAV:   6    -0.148193730463E+03   -0.40074E+02   -0.69610E+02  3855   0.804E+01    0.596E+01
DAV:   7    -0.100136069027E+03    0.48058E+02   -0.13236E+03  3711   0.155E+02    0.221E+01
DAV:   8    -0.926840931379E+02    0.74520E+01   -0.14676E+02  3126   0.665E+01    0.185E+01
DAV:   9    -0.912601650870E+02    0.14239E+01   -0.98705E+00  3376   0.123E+01    0.155E+01
DAV:  10    -0.906367405155E+02    0.62342E+00   -0.91241E-01  3305   0.463E+00    0.143E+01
DAV:  11    -0.895131174354E+02    0.11236E+01   -0.60115E-01  3072   0.426E+00    0.119E+01
DAV:  12    -0.870040119555E+02    0.25091E+01   -0.81230E+00  3185   0.154E+01    0.294E+00
DAV:  13    -0.872019884825E+02   -0.19798E+00   -0.10887E+00  3094   0.536E+00    0.409E+00
DAV:  14    -0.868582624877E+02    0.34373E+00   -0.18828E+00  3217   0.677E+00    0.330E-01
DAV:  15    -0.868668019729E+02   -0.85395E-02   -0.88735E-02  3185   0.121E+00    0.299E-01
DAV:  16    -0.868714853119E+02   -0.46833E-02   -0.56483E-02  3304   0.106E+00    0.520E-01
DAV:  17    -0.868682903418E+02    0.31950E-02   -0.42931E-02  3073   0.111E+00    0.120E-01
DAV:  18    -0.868685447942E+02   -0.25445E-03   -0.16231E-03  2984   0.172E-01    0.154E-01
DAV:  19    -0.868687652474E+02   -0.22045E-03   -0.13025E-03  3121   0.172E-01    0.651E-02
DAV:  20    -0.868693459966E+02   -0.58075E-03   -0.58759E-04  3080   0.101E-01    0.934E-02
DAV:  21    -0.868698341827E+02   -0.48819E-03   -0.69936E-04  2696   0.146E-01    0.231E-02
DAV:  22    -0.868701179704E+02   -0.28379E-03   -0.27979E-04  3288   0.675E-02    0.275E-02
DAV:  23    -0.868701943706E+02   -0.76400E-04   -0.22360E-05  2321   0.260E-02    0.303E-02
DAV:  24    -0.868702308300E+02   -0.36459E-04   -0.40105E-05  2544   0.386E-02    0.120E-02
DAV:  25    -0.868702337490E+02   -0.29190E-05   -0.15681E-05  2169   0.189E-02
   1 F= -.86870234E+02 E0= -.86870713E+02  d E =0.143862E-02
 running on   16 total cores
 distrk:  each k-point on    8 cores,    2 groups
 distr:  one band on    8 cores,    1 groups
 using from now: INCAR     
 vasp.5.4.4.18Apr17-6-g9f103f2a35 (build Nov 27 2019 20:08:17) complex          
  
 POSCAR found type information on POSCAR  Ti
 POSCAR found :  1 types and      12 ions
 scaLAPACK will be used

 ----------------------------------------------------------------------------- 
|                                                                             |
|           W    W    AA    RRRRR   N    N  II  N    N   GGGG   !!!           |
|           W    W   A  A   R    R  NN   N  II  NN   N  G    G  !!!           |
|           W    W  A    A  R    R  N N  N  II  N N  N  G       !!!           |
|           W WW W  AAAAAA  RRRRR   N  N N  II  N  N N  G  GGG   !            |
|           WW  WW  A    A  R   R   N   NN  II  N   NN  G    G                |
|           W    W  A    A  R    R  N    N  II  N    N   GGGG   !!!           |
|                                                                             |
|      You have enabled k-point parallelism (KPAR>1).                         |
|      This developmental code was originally  written by Paul Kent at ORNL,  |
|      and carefully double checked in Vienna.                                |
|      GW as well as linear response parallelism added by Martijn Marsman     |
|      and Georg Kresse.                                                      |
|      Carefully verify results versus KPAR=1.                                |
|      Report problems to Paul Kent and Vienna.                               |
|                                                                             |
 ----------------------------------------------------------------------------- 

 LDA part: xc-table for Pade appr. of Perdew
 POSCAR found type information on POSCAR  Ti
 POSCAR found :  1 types and      12 ions
 POSCAR, INCAR and KPOINTS ok, starting setup
 FFT: planning ...
 WAVECAR not read
 WARNING: random wavefunctions but no delay for mixing, default for NELMDL
 entering main loop
       N       E                     dE             d eps       ncg     rms          rms(c)
DAV:   1     0.185127896902E+03    0.18513E+03   -0.12372E+04  1984   0.943E+02
DAV:   2    -0.715445869429E+02   -0.25667E+03   -0.24638E+03  1999   0.224E+02
DAV:   3    -0.108406547848E+03   -0.36862E+02   -0.34072E+02  3008   0.739E+01
DAV:   4    -0.110625629487E+03   -0.22191E+01   -0.20837E+01  2920   0.231E+01
DAV:   5    -0.110714695535E+03   -0.89066E-01   -0.87520E-01  2982   0.412E+00    0.386E+01
DAV:   6    -0.161745686659E+03   -0.51031E+02   -0.78505E+02  3898   0.788E+01    0.623E+01
DAV:   7    -0.953253337719E+02    0.66420E+02   -0.12443E+03  3835   0.137E+02    0.208E+01
DAV:   8    -0.929187368384E+02    0.24066E+01   -0.15411E+02  3085   0.647E+01    0.178E+01
DAV:   9    -0.904753957943E+02    0.24433E+01   -0.20282E+01  3342   0.203E+01    0.136E+01
DAV:  10    -0.897081056209E+02    0.76729E+00   -0.23845E+00  3163   0.556E+00    0.121E+01
DAV:  11    -0.878118687015E+02    0.18962E+01   -0.22433E+00  2752   0.866E+00    0.819E+00
DAV:  12    -0.862780250016E+02    0.15338E+01   -0.72821E+00  3227   0.123E+01    0.194E+00
DAV:  13    -0.863178145922E+02   -0.39790E-01   -0.33858E-01  3107   0.260E+00    0.187E+00
DAV:  14    -0.863258291936E+02   -0.80146E-02   -0.12544E+00  3114   0.571E+00    0.226E+00
DAV:  15    -0.862722544805E+02    0.53575E-01   -0.60229E-01  2853   0.373E+00    0.734E-01
DAV:  16    -0.862644142334E+02    0.78402E-02   -0.32365E-02  2861   0.884E-01    0.261E-01
DAV:  17    -0.862784729242E+02   -0.14059E-01   -0.13429E-01  3259   0.145E+00    0.961E-01
DAV:  18    -0.862671834141E+02    0.11290E-01   -0.31571E-02  3230   0.776E-01    0.431E-01
DAV:  19    -0.862658044695E+02    0.13789E-02   -0.25611E-02  3368   0.623E-01    0.174E-01
DAV:  20    -0.862656699110E+02    0.13456E-03   -0.25678E-03  2613   0.288E-01    0.412E-02
DAV:  21    -0.862666180509E+02   -0.94814E-03   -0.12101E-03  3243   0.152E-01    0.963E-02
DAV:  22    -0.862671831861E+02   -0.56514E-03   -0.15538E-03  3123   0.172E-01    0.320E-02
DAV:  23    -0.862672612573E+02   -0.78071E-04   -0.70553E-05  2770   0.432E-02    0.204E-02
DAV:  24    -0.862673447451E+02   -0.83488E-04   -0.63741E-05  2892   0.290E-02    0.103E-02
DAV:  25    -0.862673537725E+02   -0.90274E-05   -0.59049E-06  1521   0.153E-02    0.642E-03
DAV:  26    -0.862673558307E+02   -0.20583E-05   -0.36038E-06  1447   0.123E-02
   1 F= -.86267356E+02 E0= -.86268503E+02  d E =0.344180E-02
 running on   16 total cores
 distrk:  each k-point on    8 cores,    2 groups
 distr:  one band on    8 cores,    1 groups
 using from now: INCAR     
 vasp.5.4.4.18Apr17-6-g9f103f2a35 (build Nov 27 2019 20:08:17) complex          
  
 POSCAR found type information on POSCAR  Ti
 POSCAR found :  1 types and      24 ions
 scaLAPACK will be used

 ----------------------------------------------------------------------------- 
|                                                                             |
|           W    W    AA    RRRRR   N    N  II  N    N   GGGG   !!!           |
|           W    W   A  A   R    R  NN   N  II  NN   N  G    G  !!!           |
|           W    W  A    A  R    R  N N  N  II  N N  N  G       !!!           |
|           W WW W  AAAAAA  RRRRR   N  N N  II  N  N N  G  GGG   !            |
|           WW  WW  A    A  R   R   N   NN  II  N   NN  G    G                |
|           W    W  A    A  R    R  N    N  II  N    N   GGGG   !!!           |
|                                                                             |
|      You have enabled k-point parallelism (KPAR>1).                         |
|      This developmental code was originally  written by Paul Kent at ORNL,  |
|      and carefully double checked in Vienna.                                |
|      GW as well as linear response parallelism added by Martijn Marsman     |
|      and Georg Kresse.                                                      |
|      Carefully verify results versus KPAR=1.                                |
|      Report problems to Paul Kent and Vienna.                               |
|                                                                             |
 ----------------------------------------------------------------------------- 

 LDA part: xc-table for Pade appr. of Perdew
 POSCAR found type information on POSCAR  Ti
 POSCAR found :  1 types and      24 ions
 POSCAR, INCAR and KPOINTS ok, starting setup
 FFT: planning ...
 WAVECAR not read
 WARNING: random wavefunctions but no delay for mixing, default for NELMDL
 entering main loop
       N       E                     dE             d eps       ncg     rms          rms(c)
DAV:   1     0.331759774018E+03    0.33176E+03   -0.24752E+04  3904   0.105E+03
DAV:   2    -0.135713732820E+03   -0.46747E+03   -0.45301E+03  3904   0.247E+02
DAV:   3    -0.203504235664E+03   -0.67791E+02   -0.63282E+02  6048   0.828E+01
DAV:   4    -0.208807701912E+03   -0.53035E+01   -0.49653E+01  6016   0.236E+01
DAV:   5    -0.209072887228E+03   -0.26519E+00   -0.25143E+00  5936   0.390E+00    0.563E+01
DAV:   6    -0.256570623658E+03   -0.47498E+02   -0.81789E+02  7508   0.748E+01    0.498E+01
DAV:   7    -0.349598827915E+03   -0.93028E+02   -0.29984E+03  7680   0.117E+02    0.628E+01
DAV:   8    -0.196840363082E+03    0.15276E+03   -0.19799E+03  7358   0.947E+01    0.398E+01
DAV:   9    -0.178175975084E+03    0.18664E+02   -0.47331E+02  6126   0.956E+01    0.185E+01
DAV:  10    -0.179939082849E+03   -0.17631E+01   -0.54175E+01  6256   0.212E+01    0.161E+01
DAV:  11    -0.180508194963E+03   -0.56911E+00   -0.32492E+00  6192   0.451E+00    0.171E+01
DAV:  12    -0.179518558568E+03    0.98964E+00   -0.16113E+00  6288   0.474E+00    0.147E+01
DAV:  13    -0.179262835614E+03    0.25572E+00   -0.13802E-01  5888   0.151E+00    0.141E+01
DAV:  14    -0.178135073862E+03    0.11278E+01   -0.12528E+00  5664   0.486E+00    0.109E+01
DAV:  15    -0.177314943698E+03    0.82013E+00   -0.14492E+00  5448   0.552E+00    0.751E+00
DAV:  16    -0.176871959618E+03    0.44298E+00   -0.18786E+00  5648   0.586E+00    0.465E+00
DAV:  17    -0.176779810877E+03    0.92149E-01   -0.18041E-01  5856   0.181E+00    0.375E+00
DAV:  18    -0.176692241912E+03    0.87569E-01   -0.79287E-02  6240   0.917E-01    0.263E+00
DAV:  19    -0.176635600945E+03    0.56641E-01   -0.76978E-02  6443   0.954E-01    0.138E+00
DAV:  20    -0.176620028603E+03    0.15572E-01   -0.28935E-02  6216   0.564E-01    0.930E-01
DAV:  21    -0.176618525050E+03    0.15036E-02   -0.35418E-03  5728   0.220E-01    0.786E-01
DAV:  22    -0.176613810764E+03    0.47143E-02   -0.54507E-03  6760   0.222E-01    0.388E-01
DAV:  23    -0.176613469480E+03    0.34128E-03   -0.98582E-04  5088   0.143E-01    0.272E-01
DAV:  24    -0.176612797374E+03    0.67211E-03   -0.86719E-04  7240   0.846E-02    0.138E-01
DAV:  25    -0.176612691502E+03    0.10587E-03   -0.13768E-04  5699   0.402E-02    0.806E-02
DAV:  26    -0.176612645330E+03    0.46172E-04   -0.85097E-05  6072   0.294E-02    0.333E-02
DAV:  27    -0.176612642523E+03    0.28067E-05   -0.10845E-05  3419   0.156E-02
   1 F= -.17661264E+03 E0= -.17661349E+03  d E =0.253197E-02
Distance=3.000
 running on   16 total cores
 distrk:  each k-point on    8 cores,    2 groups
 distr:  one band on    8 cores,    1 groups
 using from now: INCAR     
 vasp.5.4.4.18Apr17-6-g9f103f2a35 (build Nov 27 2019 20:08:17) complex          
  
 POSCAR found type information on POSCAR  Ti
 POSCAR found :  1 types and      12 ions
 scaLAPACK will be used

 ----------------------------------------------------------------------------- 
|                                                                             |
|           W    W    AA    RRRRR   N    N  II  N    N   GGGG   !!!           |
|           W    W   A  A   R    R  NN   N  II  NN   N  G    G  !!!           |
|           W    W  A    A  R    R  N N  N  II  N N  N  G       !!!           |
|           W WW W  AAAAAA  RRRRR   N  N N  II  N  N N  G  GGG   !            |
|           WW  WW  A    A  R   R   N   NN  II  N   NN  G    G                |
|           W    W  A    A  R    R  N    N  II  N    N   GGGG   !!!           |
|                                                                             |
|      You have enabled k-point parallelism (KPAR>1).                         |
|      This developmental code was originally  written by Paul Kent at ORNL,  |
|      and carefully double checked in Vienna.                                |
|      GW as well as linear response parallelism added by Martijn Marsman     |
|      and Georg Kresse.                                                      |
|      Carefully verify results versus KPAR=1.                                |
|      Report problems to Paul Kent and Vienna.                               |
|                                                                             |
 ----------------------------------------------------------------------------- 

 LDA part: xc-table for Pade appr. of Perdew
 POSCAR found type information on POSCAR  Ti
 POSCAR found :  1 types and      12 ions
 POSCAR, INCAR and KPOINTS ok, starting setup
 FFT: planning ...
 WAVECAR not read
 WARNING: random wavefunctions but no delay for mixing, default for NELMDL
 entering main loop
       N       E                     dE             d eps       ncg     rms          rms(c)
DAV:   1     0.200954214001E+03    0.20095E+03   -0.12400E+04  1984   0.932E+02
DAV:   2    -0.690772537564E+02   -0.27003E+03   -0.25879E+03  2035   0.226E+02
DAV:   3    -0.105321213560E+03   -0.36244E+02   -0.33880E+02  3056   0.759E+01
DAV:   4    -0.107989306191E+03   -0.26681E+01   -0.25432E+01  3064   0.231E+01
DAV:   5    -0.108120556461E+03   -0.13125E+00   -0.12769E+00  3208   0.456E+00    0.427E+01
DAV:   6    -0.146701427070E+03   -0.38581E+02   -0.67973E+02  3861   0.797E+01    0.594E+01
DAV:   7    -0.101309373772E+03    0.45392E+02   -0.13411E+03  3726   0.156E+02    0.225E+01
DAV:   8    -0.928206738338E+02    0.84887E+01   -0.14741E+02  3096   0.671E+01    0.188E+01
DAV:   9    -0.914726499327E+02    0.13480E+01   -0.10824E+01  3368   0.131E+01    0.158E+01
DAV:  10    -0.908375035052E+02    0.63515E+00   -0.10069E+00  3337   0.490E+00    0.147E+01
DAV:  11    -0.899963426641E+02    0.84116E+00   -0.32807E-01  3112   0.316E+00    0.129E+01
DAV:  12    -0.870109689971E+02    0.29854E+01   -0.95479E+00  3184   0.167E+01    0.312E+00
DAV:  13    -0.872778548252E+02   -0.26689E+00   -0.11799E+00  3061   0.555E+00    0.453E+00
DAV:  14    -0.868540882618E+02    0.42377E+00   -0.23140E+00  3209   0.758E+00    0.321E-01
DAV:  15    -0.868647802491E+02   -0.10692E-01   -0.10195E-01  3209   0.131E+00    0.286E-01
DAV:  16    -0.868720097011E+02   -0.72295E-02   -0.45391E-02  3288   0.909E-01    0.555E-01
DAV:  17    -0.868687905550E+02    0.32191E-02   -0.42558E-02  3082   0.110E+00    0.943E-02
DAV:  18    -0.868689186168E+02   -0.12806E-03   -0.18219E-03  2976   0.180E-01    0.743E-02
DAV:  19    -0.868688651663E+02    0.53451E-04   -0.64072E-04  2929   0.861E-02    0.531E-02
DAV:  20    -0.868692417343E+02   -0.37657E-03   -0.73971E-04  3248   0.110E-01    0.926E-02
DAV:  21    -0.868695174029E+02   -0.27567E-03   -0.67453E-04  2960   0.134E-01    0.197E-02
DAV:  22    -0.868697325405E+02   -0.21514E-03   -0.22958E-04  3224   0.755E-02    0.280E-02
DAV:  23    -0.868699318548E+02   -0.19931E-03   -0.26344E-05  2400   0.235E-02    0.284E-02
DAV:  24    -0.868699810211E+02   -0.49166E-04   -0.39227E-05  2672   0.369E-02    0.101E-02
DAV:  25    -0.868699990330E+02   -0.18012E-04   -0.79573E-06  1848   0.176E-02    0.224E-03
DAV:  26    -0.868700062242E+02   -0.71913E-05   -0.37948E-06  1744   0.705E-03    0.215E-03
DAV:  27    -0.868700090449E+02   -0.28207E-05   -0.82256E-07  1659   0.664E-03
   1 F= -.86870009E+02 E0= -.86870488E+02  d E =0.143653E-02
 running on   16 total cores
 distrk:  each k-point on    8 cores,    2 groups
 distr:  one band on    8 cores,    1 groups
 using from now: INCAR     
 vasp.5.4.4.18Apr17-6-g9f103f2a35 (build Nov 27 2019 20:08:17) complex          
  
 POSCAR found type information on POSCAR  Ti
 POSCAR found :  1 types and      12 ions
 scaLAPACK will be used

 ----------------------------------------------------------------------------- 
|                                                                             |
|           W    W    AA    RRRRR   N    N  II  N    N   GGGG   !!!           |
|           W    W   A  A   R    R  NN   N  II  NN   N  G    G  !!!           |
|           W    W  A    A  R    R  N N  N  II  N N  N  G       !!!           |
|           W WW W  AAAAAA  RRRRR   N  N N  II  N  N N  G  GGG   !            |
|           WW  WW  A    A  R   R   N   NN  II  N   NN  G    G                |
|           W    W  A    A  R    R  N    N  II  N    N   GGGG   !!!           |
|                                                                             |
|      You have enabled k-point parallelism (KPAR>1).                         |
|      This developmental code was originally  written by Paul Kent at ORNL,  |
|      and carefully double checked in Vienna.                                |
|      GW as well as linear response parallelism added by Martijn Marsman     |
|      and Georg Kresse.                                                      |
|      Carefully verify results versus KPAR=1.                                |
|      Report problems to Paul Kent and Vienna.                               |
|                                                                             |
 ----------------------------------------------------------------------------- 

 LDA part: xc-table for Pade appr. of Perdew
 POSCAR found type information on POSCAR  Ti
 POSCAR found :  1 types and      12 ions
 POSCAR, INCAR and KPOINTS ok, starting setup
 FFT: planning ...
 WAVECAR not read
[...]
DAV:  14    -0.174202242117E+03    0.18984E+02   -0.39055E+01  6131   0.160E+01    0.870E+00
DAV:  15    -0.174690292275E+03   -0.48805E+00   -0.12624E+01  6136   0.691E+00    0.783E+00
DAV:  16    -0.174113149250E+03    0.57714E+00   -0.76711E+00  6152   0.584E+00    0.589E+00
DAV:  17    -0.173867913758E+03    0.24524E+00   -0.15472E+00  6219   0.324E+00    0.504E+00
DAV:  18    -0.174168636519E+03   -0.30072E+00   -0.16227E+00  5979   0.343E+00    0.587E+00
DAV:  19    -0.173743978792E+03    0.42466E+00   -0.76350E-01  6288   0.265E+00    0.405E+00
DAV:  20    -0.173637628385E+03    0.10635E+00   -0.15903E-01  6063   0.170E+00    0.373E+00
DAV:  21    -0.173256032548E+03    0.38160E+00   -0.19260E+00  5752   0.311E+00    0.273E+00
DAV:  22    -0.173256776867E+03   -0.74432E-03   -0.93722E-02  6465   0.931E-01    0.303E+00
DAV:  23    -0.173186179753E+03    0.70597E-01   -0.87135E-02  6386   0.586E-01    0.192E+00
DAV:  24    -0.173148646090E+03    0.37534E-01   -0.99213E-02  6552   0.104E+00    0.131E+00
DAV:  25    -0.173139056037E+03    0.95901E-02   -0.59135E-02  5907   0.509E-01    0.941E-01
DAV:  26    -0.173133336469E+03    0.57196E-02   -0.16360E-02  6088   0.287E-01    0.677E-01
DAV:  27    -0.173135815018E+03   -0.24785E-02   -0.12551E-02  5840   0.372E-01    0.449E-01
DAV:  28    -0.173137836024E+03   -0.20210E-02   -0.21121E-02  6408   0.468E-01    0.353E-01
DAV:  29    -0.173137589758E+03    0.24627E-03   -0.97452E-03  5496   0.342E-01    0.187E-01
DAV:  30    -0.173137722806E+03   -0.13305E-03   -0.64358E-04  5736   0.762E-02    0.122E-01
DAV:  31    -0.173137777751E+03   -0.54945E-04   -0.35991E-04  5120   0.672E-02    0.931E-02
DAV:  32    -0.173137770211E+03    0.75398E-05   -0.18406E-04  5576   0.461E-02    0.455E-02
DAV:  33    -0.173137823946E+03   -0.53735E-04   -0.16538E-04  6222   0.387E-02    0.400E-02
DAV:  34    -0.173137810203E+03    0.13743E-04   -0.30315E-05  5512   0.225E-02    0.247E-02
DAV:  35    -0.173137805269E+03    0.49331E-05   -0.26722E-05  5209   0.185E-02
   1 F= -.17313781E+03 E0= -.17313948E+03  d E =0.502307E-02
Distance=10.000
 running on   16 total cores
 distrk:  each k-point on    8 cores,    2 groups
 distr:  one band on    8 cores,    1 groups
 using from now: INCAR     
 vasp.5.4.4.18Apr17-6-g9f103f2a35 (build Nov 27 2019 20:08:17) complex          
  
 POSCAR found type information on POSCAR  Ti
 POSCAR found :  1 types and      12 ions
 scaLAPACK will be used

 ----------------------------------------------------------------------------- 
|                                                                             |
|           W    W    AA    RRRRR   N    N  II  N    N   GGGG   !!!           |
|           W    W   A  A   R    R  NN   N  II  NN   N  G    G  !!!           |
|           W    W  A    A  R    R  N N  N  II  N N  N  G       !!!           |
|           W WW W  AAAAAA  RRRRR   N  N N  II  N  N N  G  GGG   !            |
|           WW  WW  A    A  R   R   N   NN  II  N   NN  G    G                |
|           W    W  A    A  R    R  N    N  II  N    N   GGGG   !!!           |
|                                                                             |
|      You have enabled k-point parallelism (KPAR>1).                         |
|      This developmental code was originally  written by Paul Kent at ORNL,  |
|      and carefully double checked in Vienna.                                |
|      GW as well as linear response parallelism added by Martijn Marsman     |
|      and Georg Kresse.                                                      |
|      Carefully verify results versus KPAR=1.                                |
|      Report problems to Paul Kent and Vienna.                               |
|                                                                             |
 ----------------------------------------------------------------------------- 

 LDA part: xc-table for Pade appr. of Perdew
 POSCAR found type information on POSCAR  Ti
 POSCAR found :  1 types and      12 ions
 POSCAR, INCAR and KPOINTS ok, starting setup
 FFT: planning ...
 WAVECAR not read
 WARNING: random wavefunctions but no delay for mixing, default for NELMDL
 entering main loop
       N       E                     dE             d eps       ncg     rms          rms(c)
DAV:   1     0.202535683858E+03    0.20254E+03   -0.11737E+04  1984   0.858E+02
DAV:   2    -0.742495118734E+02   -0.27679E+03   -0.26419E+03  2238   0.221E+02
DAV:   3    -0.105805277687E+03   -0.31556E+02   -0.29843E+02  3018   0.729E+01
DAV:   4    -0.108006918006E+03   -0.22016E+01   -0.20852E+01  3136   0.209E+01
DAV:   5    -0.108121175653E+03   -0.11426E+00   -0.11135E+00  3289   0.412E+00    0.427E+01
DAV:   6    -0.148688152654E+03   -0.40567E+02   -0.69997E+02  3854   0.808E+01    0.597E+01
DAV:   7    -0.109966873704E+03    0.38721E+02   -0.16433E+03  3696   0.172E+02    0.254E+01
DAV:   8    -0.938257562355E+02    0.16141E+02   -0.19217E+02  3125   0.797E+01    0.202E+01
DAV:   9    -0.931713246139E+02    0.65443E+00   -0.15065E+01  3280   0.185E+01    0.185E+01
DAV:  10    -0.924066160592E+02    0.76471E+00   -0.10774E+00  3344   0.494E+00    0.172E+01
DAV:  11    -0.886224707257E+02    0.37841E+01   -0.48755E+00  2833   0.134E+01    0.916E+00
DAV:  12    -0.873676934880E+02    0.12548E+01   -0.29322E+00  3424   0.783E+00    0.472E+00
DAV:  13    -0.873968013908E+02   -0.29108E-01   -0.17913E-01  3417   0.158E+00    0.467E+00
DAV:  14    -0.869524383699E+02    0.44436E+00   -0.10897E+00  2609   0.673E+00    0.243E+00
DAV:  15    -0.868696237269E+02    0.82815E-01   -0.11496E+00  3304   0.508E+00    0.105E+00
DAV:  16    -0.868634617835E+02    0.61619E-02   -0.10857E-01  3152   0.158E+00    0.514E-01
DAV:  17    -0.868648865196E+02   -0.14247E-02   -0.11356E-02  2888   0.609E-01    0.175E-01
DAV:  18    -0.868661083976E+02   -0.12219E-02   -0.24358E-03  2950   0.257E-01    0.952E-02
DAV:  19    -0.868683511855E+02   -0.22428E-02   -0.31395E-03  2624   0.338E-01    0.217E-01
DAV:  20    -0.868685060893E+02   -0.15490E-03   -0.73130E-03  3162   0.452E-01    0.794E-02
DAV:  21    -0.868693374471E+02   -0.83136E-03   -0.28924E-03  3008   0.280E-01    0.871E-02
DAV:  22    -0.868695925730E+02   -0.25513E-03   -0.61077E-04  2544   0.150E-01    0.290E-02
DAV:  23    -0.868698510795E+02   -0.25851E-03   -0.17608E-04  3144   0.549E-02    0.913E-03
DAV:  24    -0.868699753254E+02   -0.12425E-03   -0.31954E-05  2384   0.334E-02    0.169E-02
DAV:  25    -0.868700413922E+02   -0.66067E-04   -0.38309E-05  2504   0.338E-02    0.302E-03
DAV:  26    -0.868700655736E+02   -0.24181E-04   -0.25344E-06  1808   0.787E-03    0.200E-03
DAV:  27    -0.868700836514E+02   -0.18078E-04   -0.91381E-07  1744   0.372E-03    0.323E-03
DAV:  28    -0.868700933560E+02   -0.97045E-05   -0.21604E-06  1698   0.983E-03    0.200E-03
DAV:  29    -0.868700962843E+02   -0.29283E-05   -0.57781E-07  1622   0.313E-03
   1 F= -.86870096E+02 E0= -.86870576E+02  d E =0.144038E-02
 running on   16 total cores
 distrk:  each k-point on    8 cores,    2 groups
 distr:  one band on    8 cores,    1 groups
 using from now: INCAR     
 vasp.5.4.4.18Apr17-6-g9f103f2a35 (build Nov 27 2019 20:08:17) complex          
  
 POSCAR found type information on POSCAR  Ti
 POSCAR found :  1 types and      12 ions
 scaLAPACK will be used

 ----------------------------------------------------------------------------- 
|                                                                             |
|           W    W    AA    RRRRR   N    N  II  N    N   GGGG   !!!           |
|           W    W   A  A   R    R  NN   N  II  NN   N  G    G  !!!           |
|           W    W  A    A  R    R  N N  N  II  N N  N  G       !!!           |
|           W WW W  AAAAAA  RRRRR   N  N N  II  N  N N  G  GGG   !            |
|           WW  WW  A    A  R   R   N   NN  II  N   NN  G    G                |
|           W    W  A    A  R    R  N    N  II  N    N   GGGG   !!!           |
|                                                                             |
|      You have enabled k-point parallelism (KPAR>1).                         |
|      This developmental code was originally  written by Paul Kent at ORNL,  |
|      and carefully double checked in Vienna.                                |
|      GW as well as linear response parallelism added by Martijn Marsman     |
|      and Georg Kresse.                                                      |
|      Carefully verify results versus KPAR=1.                                |
|      Report problems to Paul Kent and Vienna.                               |
|                                                                             |
 ----------------------------------------------------------------------------- 

 LDA part: xc-table for Pade appr. of Perdew
 POSCAR found type information on POSCAR  Ti
 POSCAR found :  1 types and      12 ions
 POSCAR, INCAR and KPOINTS ok, starting setup
 FFT: planning ...
 WAVECAR not read
 WARNING: random wavefunctions but no delay for mixing, default for NELMDL
 entering main loop
       N       E                     dE             d eps       ncg     rms          rms(c)
DAV:   1     0.194486226116E+03    0.19449E+03   -0.11614E+04  1984   0.860E+02
DAV:   2    -0.794247453790E+02   -0.27391E+03   -0.25987E+03  2342   0.217E+02
DAV:   3    -0.108927279110E+03   -0.29503E+02   -0.27367E+02  2921   0.705E+01
DAV:   4    -0.110635672059E+03   -0.17084E+01   -0.16113E+01  2944   0.201E+01
DAV:   5    -0.110715881898E+03   -0.80210E-01   -0.79105E-01  3095   0.388E+00    0.386E+01
DAV:   6    -0.162530749396E+03   -0.51815E+02   -0.79027E+02  3905   0.792E+01    0.626E+01
DAV:   7    -0.103149792246E+03    0.59381E+02   -0.15283E+03  3742   0.150E+02    0.237E+01
DAV:   8    -0.930084567515E+02    0.10141E+02   -0.17795E+02  2929   0.722E+01    0.179E+01
DAV:   9    -0.910970377316E+02    0.19114E+01   -0.19118E+01  3427   0.172E+01    0.144E+01
DAV:  10    -0.908451228976E+02    0.25191E+00   -0.18119E+00  3236   0.503E+00    0.137E+01
DAV:  11    -0.914645589965E+02   -0.61944E+00   -0.29680E-01  2799   0.240E+00    0.146E+01
DAV:  12    -0.862487749190E+02    0.52158E+01   -0.22109E+01  2978   0.242E+01    0.292E+00
DAV:  13    -0.863204953140E+02   -0.71720E-01   -0.65802E-01  3019   0.344E+00    0.279E+00
DAV:  14    -0.862873172802E+02    0.33178E-01   -0.94611E-01  3328   0.434E+00    0.261E+00
DAV:  15    -0.862891671640E+02   -0.18499E-02   -0.73224E-01  3115   0.367E+00    0.144E+00
DAV:  16    -0.862654995171E+02    0.23668E-01   -0.68221E-02  2976   0.108E+00    0.756E-01
DAV:  17    -0.862721075550E+02   -0.66080E-02   -0.19451E-01  3298   0.172E+00    0.923E-01
DAV:  18    -0.862703448816E+02    0.17627E-02   -0.10780E-02  3056   0.466E-01    0.695E-01
DAV:  19    -0.862655364281E+02    0.48085E-02   -0.27766E-02  3281   0.767E-01    0.233E-01
DAV:  20    -0.862663713354E+02   -0.83491E-03   -0.14167E-02  3368   0.430E-01    0.174E-01
DAV:  21    -0.862664690171E+02   -0.97682E-04   -0.79835E-04  2945   0.145E-01    0.130E-01
DAV:  22    -0.862668240026E+02   -0.35499E-03   -0.90056E-04  3162   0.129E-01    0.368E-02
DAV:  23    -0.862670390425E+02   -0.21504E-03   -0.40257E-04  3330   0.837E-02    0.310E-02
DAV:  24    -0.862671270292E+02   -0.87987E-04   -0.22278E-04  3140   0.633E-02    0.195E-02
DAV:  25    -0.862672727780E+02   -0.14575E-03   -0.54775E-05  2395   0.356E-02    0.142E-02
DAV:  26    -0.862672902526E+02   -0.17475E-04   -0.19884E-05  2159   0.184E-02    0.848E-03
DAV:  27    -0.862673254752E+02   -0.35223E-04   -0.57517E-06  1488   0.144E-02    0.384E-03
DAV:  28    -0.862673400397E+02   -0.14565E-04   -0.35224E-06  1496   0.800E-03    0.490E-03
DAV:  29    -0.862673490723E+02   -0.90326E-05   -0.28949E-06  1440   0.121E-02    0.154E-03
DAV:  30    -0.862673547836E+02   -0.57113E-05   -0.81091E-07  1482   0.319E-03    0.107E-03
DAV:  31    -0.862673615673E+02   -0.67837E-05   -0.10742E-06  1440   0.525E-03    0.227E-03
DAV:  32    -0.862673632273E+02   -0.16600E-05   -0.35002E-07  1391   0.313E-03
   1 F= -.86267363E+02 E0= -.86268511E+02  d E =0.344469E-02
 running on   16 total cores
 distrk:  each k-point on    8 cores,    2 groups
 distr:  one band on    8 cores,    1 groups
 using from now: INCAR     
 vasp.5.4.4.18Apr17-6-g9f103f2a35 (build Nov 27 2019 20:08:17) complex          
  
 POSCAR found type information on POSCAR  Ti
 POSCAR found :  1 types and      24 ions
 scaLAPACK will be used

 ----------------------------------------------------------------------------- 
|                                                                             |
|           W    W    AA    RRRRR   N    N  II  N    N   GGGG   !!!           |
|           W    W   A  A   R    R  NN   N  II  NN   N  G    G  !!!           |
|           W    W  A    A  R    R  N N  N  II  N N  N  G       !!!           |
|           W WW W  AAAAAA  RRRRR   N  N N  II  N  N N  G  GGG   !            |
|           WW  WW  A    A  R   R   N   NN  II  N   NN  G    G                |
|           W    W  A    A  R    R  N    N  II  N    N   GGGG   !!!           |
|                                                                             |
|      You have enabled k-point parallelism (KPAR>1).                         |
|      This developmental code was originally  written by Paul Kent at ORNL,  |
|      and carefully double checked in Vienna.                                |
|      GW as well as linear response parallelism added by Martijn Marsman     |
|      and Georg Kresse.                                                      |
|      Carefully verify results versus KPAR=1.                                |
|      Report problems to Paul Kent and Vienna.                               |
|                                                                             |
 ----------------------------------------------------------------------------- 

 LDA part: xc-table for Pade appr. of Perdew
 POSCAR found type information on POSCAR  Ti
 POSCAR found :  1 types and      24 ions
 POSCAR, INCAR and KPOINTS ok, starting setup
 FFT: planning ...
 WAVECAR not read
 WARNING: random wavefunctions but no delay for mixing, default for NELMDL
 entering main loop
       N       E                     dE             d eps       ncg     rms          rms(c)
DAV:   1     0.385084966290E+03    0.38508E+03   -0.24794E+04  3904   0.977E+02
DAV:   2    -0.135645925753E+03   -0.52073E+03   -0.50180E+03  3904   0.234E+02
DAV:   3    -0.212907193631E+03   -0.77261E+02   -0.72028E+02  5904   0.804E+01
DAV:   4    -0.218841341127E+03   -0.59341E+01   -0.55390E+01  6040   0.247E+01
DAV:   5    -0.219216754642E+03   -0.37541E+00   -0.35988E+00  6440   0.504E+00    0.578E+01
DAV:   6    -0.750697192511E+03   -0.53148E+03   -0.58897E+03  7458   0.893E+01    0.858E+01
DAV:   7    -0.790849612312E+03   -0.40152E+02   -0.14106E+04  7688   0.870E+01    0.101E+02
DAV:   8    -0.161902873345E+03    0.62895E+03   -0.14799E+03  5555   0.203E+02    0.451E+01
DAV:   9    -0.374452466395E+03   -0.21255E+03   -0.43174E+03  7792   0.116E+02    0.855E+01
DAV:  10    -0.238013097240E+03    0.13644E+03   -0.77633E+02  5336   0.136E+02    0.451E+01
DAV:  11    -0.213221373060E+03    0.24792E+02   -0.11569E+02  6184   0.299E+01    0.350E+01
DAV:  12    -0.200175371140E+03    0.13046E+02   -0.24011E+01  6232   0.116E+01    0.283E+01
DAV:  13    -0.192271628253E+03    0.79037E+01   -0.68481E+00  6104   0.892E+00    0.247E+01
DAV:  14    -0.174248549869E+03    0.18023E+02   -0.43682E+01  5952   0.166E+01    0.100E+01
DAV:  15    -0.175699616160E+03   -0.14511E+01   -0.21753E+01  6224   0.766E+00    0.910E+00
DAV:  16    -0.177323940229E+03   -0.16243E+01   -0.20990E+01  6280   0.753E+00    0.126E+01
DAV:  17    -0.174050962743E+03    0.32730E+01   -0.11364E+01  6484   0.337E+00    0.607E+00
DAV:  18    -0.174523456571E+03   -0.47249E+00   -0.66842E+00  6539   0.651E+00    0.675E+00
DAV:  19    -0.174333550625E+03    0.18991E+00   -0.47810E-01  6008   0.214E+00    0.642E+00
DAV:  20    -0.173628246646E+03    0.70530E+00   -0.30234E+00  6064   0.258E+00    0.436E+00
DAV:  21    -0.173420337140E+03    0.20791E+00   -0.23885E-01  5792   0.190E+00    0.340E+00
DAV:  22    -0.173676640445E+03   -0.25630E+00   -0.19736E+00  6203   0.246E+00    0.703E+00
DAV:  23    -0.173343486291E+03    0.33315E+00   -0.39121E-01  5980   0.726E-01    0.356E+00
DAV:  24    -0.173319022616E+03    0.24464E-01   -0.63872E-02  6112   0.754E-01    0.367E+00
DAV:  25    -0.173141806442E+03    0.17722E+00   -0.11991E+00  6204   0.209E+00    0.106E+00
DAV:  26    -0.173140472532E+03    0.13339E-02   -0.36471E-02  5680   0.732E-01    0.808E-01
DAV:  27    -0.173139307283E+03    0.11652E-02   -0.10361E-02  5384   0.392E-01    0.790E-01
DAV:  28    -0.173148957909E+03   -0.96506E-02   -0.26498E-02  5064   0.578E-01    0.102E+00
DAV:  29    -0.173144455944E+03    0.45020E-02   -0.13854E-02  6387   0.344E-01    0.728E-01
DAV:  30    -0.173136261545E+03    0.81944E-02   -0.16058E-02  5576   0.264E-01    0.291E-01
DAV:  31    -0.173136584525E+03   -0.32298E-03   -0.19339E-03  6368   0.124E-01    0.228E-01
DAV:  32    -0.173137425769E+03   -0.84124E-03   -0.41437E-03  6139   0.182E-01    0.124E-01
DAV:  33    -0.173137835173E+03   -0.40940E-03   -0.72588E-04  5656   0.763E-02    0.955E-02
DAV:  34    -0.173138062565E+03   -0.22739E-03   -0.17239E-04  4827   0.519E-02    0.720E-02
DAV:  35    -0.173138210739E+03   -0.14817E-03   -0.76733E-05  5152   0.233E-02    0.785E-02
DAV:  36    -0.173138189143E+03    0.21596E-04   -0.48133E-05  5587   0.233E-02    0.565E-02
DAV:  37    -0.173138138062E+03    0.51081E-04   -0.24878E-05  4464   0.214E-02    0.240E-02
DAV:  38    -0.173138131614E+03    0.64480E-05   -0.53227E-06  3256   0.805E-03    0.180E-02
DAV:  39    -0.173138128679E+03    0.29353E-05   -0.17577E-05  4032   0.986E-03
   1 F= -.17313813E+03 E0= -.17313976E+03  d E =0.488993E-02

DISTANCE=0.500
E_alpha=  -86.870758  E_beta=  -86.269751  E_total=  282.396322 
W_seq=455.536831

DISTANCE=1.000
E_alpha=  -86.869347  E_beta=  -86.267895  E_total=  -81.613321 
W_seq=91.523921

DISTANCE=1.500
E_alpha=  -86.870173  E_beta=  -86.267592  E_total= -165.816483 
W_seq=7.321282

DISTANCE=2.000
E_alpha=  -86.870032  E_beta=  -86.264698  E_total= -175.354140 
W_seq=-2.219410

DISTANCE=2.500
E_alpha=  -86.870234  E_beta=  -86.267356  E_total= -176.612643 
W_seq=-3.475053

DISTANCE=3.000
E_alpha=  -86.870009  E_beta=  -86.267280  E_total= -176.632419 
W_seq=-3.495130

DISTANCE=3.500
E_alpha=  -86.869877  E_beta=  -86.267463  E_total= -175.865023 
W_seq=-2.727683

DISTANCE=4.000
E_alpha=  -86.868794  E_beta=  -86.267316  E_total= -175.006884 
W_seq=-1.870774

DISTANCE=4.500
E_alpha=  -86.870214  E_beta=  -86.267468  E_total= -174.319314 
W_seq=-1.181632

DISTANCE=5.000
E_alpha=  -86.870277  E_beta=  -86.267420  E_total= -173.834258 
W_seq=-0.696561

DISTANCE=5.500
E_alpha=  -86.869247  E_beta=  -86.267337  E_total= -173.516815 
W_seq=-0.380231

DISTANCE=6.000
E_alpha=  -86.869942  E_beta=  -86.267107  E_total= -173.322311 
W_seq=-0.185262

DISTANCE=6.500
E_alpha=  -86.870271  E_beta=  -86.267188  E_total= -173.214824 
W_seq=-0.077365

DISTANCE=7.000
E_alpha=  -86.869830  E_beta=  -86.267723  E_total= -173.167308 
W_seq=-0.029755

DISTANCE=7.500
E_alpha=  -86.870232  E_beta=  -86.267336  E_total= -173.150209 
W_seq=-0.012641

DISTANCE=8.000
E_alpha=  -86.869296  E_beta=  -86.267374  E_total= -173.142663 
W_seq=-0.005993

DISTANCE=8.500
E_alpha=  -86.870234  E_beta=  -86.266929  E_total= -173.140239 
W_seq=-0.003076

DISTANCE=9.000
E_alpha=  -86.868838  E_beta=  -86.267272  E_total= -173.137799 
W_seq=-0.001689

DISTANCE=9.500
E_alpha=  -86.869465  E_beta=  -86.267315  E_total= -173.137805 
W_seq=-0.001025

DISTANCE=10.000
E_alpha=  -86.870096  E_beta=  -86.267363  E_total= -173.138129 
W_seq=-0.000670

