Distance=0.500
 running on   16 total cores
 distrk:  each k-point on    8 cores,    2 groups
 distr:  one band on    4 cores,    2 groups
 using from now: INCAR     
 vasp.5.4.4.18Apr17-6-g9f103f2a35 (build Nov 27 2019 20:08:17) complex          
  
 POSCAR found type information on POSCAR  Ti
 POSCAR found :  1 types and      32 ions
 scaLAPACK will be used

 ----------------------------------------------------------------------------- 
|                                                                             |
|           W    W    AA    RRRRR   N    N  II  N    N   GGGG   !!!           |
|           W    W   A  A   R    R  NN   N  II  NN   N  G    G  !!!           |
|           W    W  A    A  R    R  N N  N  II  N N  N  G       !!!           |
|           W WW W  AAAAAA  RRRRR   N  N N  II  N  N N  G  GGG   !            |
|           WW  WW  A    A  R   R   N   NN  II  N   NN  G    G                |
|           W    W  A    A  R    R  N    N  II  N    N   GGGG   !!!           |
|                                                                             |
|      You have enabled k-point parallelism (KPAR>1).                         |
|      This developmental code was originally  written by Paul Kent at ORNL,  |
|      and carefully double checked in Vienna.                                |
|      GW as well as linear response parallelism added by Martijn Marsman     |
|      and Georg Kresse.                                                      |
|      Carefully verify results versus KPAR=1.                                |
|      Report problems to Paul Kent and Vienna.                               |
|                                                                             |
 ----------------------------------------------------------------------------- 

 LDA part: xc-table for Pade appr. of Perdew
 POSCAR found type information on POSCAR  Ti
 POSCAR found :  1 types and      32 ions
 POSCAR, INCAR and KPOINTS ok, starting setup
 FFT: planning ...
 WAVECAR not read
 entering main loop
       N       E                     dE             d eps       ncg     rms          rms(c)
DAV:   1     0.586938743902E+03    0.58694E+03   -0.36134E+04  1968   0.110E+03
DAV:   2    -0.166142686878E+03   -0.75308E+03   -0.72510E+03  1968   0.243E+02
DAV:   3    -0.277285301431E+03   -0.11114E+03   -0.10481E+03  3056   0.845E+01
DAV:   4    -0.286562938956E+03   -0.92776E+01   -0.86624E+01  3096   0.263E+01
DAV:   5    -0.287119158954E+03   -0.55622E+00   -0.52941E+00  3208   0.533E+00    0.670E+01
DAV:   6    -0.426551340544E+03   -0.13943E+03   -0.23556E+03  3672   0.968E+01    0.845E+01
DAV:   7    -0.248630867022E+03    0.17792E+03   -0.25477E+03  3416   0.155E+02    0.297E+01
DAV:   8    -0.253923232564E+03   -0.52924E+01   -0.50118E+02  3044   0.681E+01    0.315E+01
DAV:   9    -0.236158834021E+03    0.17764E+02   -0.10301E+02  3044   0.308E+01    0.198E+01
DAV:  10    -0.235682610601E+03    0.47622E+00   -0.10976E+01  3240   0.742E+00    0.178E+01
DAV:  11    -0.237304512661E+03   -0.16219E+01   -0.42811E+00  3264   0.507E+00    0.199E+01
DAV:  12    -0.234185777357E+03    0.31187E+01   -0.50814E+00  2934   0.821E+00    0.142E+01
DAV:  13    -0.230673841509E+03    0.35119E+01   -0.94242E+00  2846   0.113E+01    0.646E+00
DAV:  14    -0.230304352293E+03    0.36949E+00   -0.23444E+00  3224   0.381E+00    0.466E+00
DAV:  15    -0.230291286877E+03    0.13065E-01   -0.12804E+00  2872   0.407E+00    0.479E+00
DAV:  16    -0.230027589611E+03    0.26370E+00   -0.24248E+00  3086   0.404E+00    0.181E+00
DAV:  17    -0.230023162719E+03    0.44269E-02   -0.13836E-01  2960   0.117E+00    0.119E+00
DAV:  18    -0.230002863790E+03    0.20299E-01   -0.10729E-01  3144   0.911E-01    0.426E-01
DAV:  19    -0.230003377013E+03   -0.51322E-03   -0.27663E-02  3304   0.401E-01    0.257E-01
DAV:  20    -0.230005812914E+03   -0.24359E-02   -0.18824E-02  2928   0.495E-01    0.253E-01
DAV:  21    -0.230007156045E+03   -0.13431E-02   -0.69863E-03  2806   0.286E-01    0.135E-01
DAV:  22    -0.230008503407E+03   -0.13474E-02   -0.23575E-03  2880   0.138E-01    0.618E-02
DAV:  23    -0.230009550652E+03   -0.10472E-02   -0.51491E-04  2480   0.616E-02    0.627E-02
DAV:  24    -0.230009615455E+03   -0.64804E-04   -0.23265E-04  2992   0.460E-02    0.213E-02
DAV:  25    -0.230009634237E+03   -0.18782E-04   -0.55702E-05  2504   0.228E-02    0.135E-02
DAV:  26    -0.230009636080E+03   -0.18427E-05   -0.32688E-05  2544   0.159E-02
   1 F= -.23000964E+03 E0= -.22995181E+03  d E =-.115652E+00
 running on   16 total cores
 distrk:  each k-point on    8 cores,    2 groups
 distr:  one band on    4 cores,    2 groups
 using from now: INCAR     
 vasp.5.4.4.18Apr17-6-g9f103f2a35 (build Nov 27 2019 20:08:17) complex          
  
 POSCAR found type information on POSCAR  Ti
 POSCAR found :  1 types and      36 ions
 scaLAPACK will be used

 ----------------------------------------------------------------------------- 
|                                                                             |
|           W    W    AA    RRRRR   N    N  II  N    N   GGGG   !!!           |
|           W    W   A  A   R    R  NN   N  II  NN   N  G    G  !!!           |
|           W    W  A    A  R    R  N N  N  II  N N  N  G       !!!           |
|           W WW W  AAAAAA  RRRRR   N  N N  II  N  N N  G  GGG   !            |
|           WW  WW  A    A  R   R   N   NN  II  N   NN  G    G                |
|           W    W  A    A  R    R  N    N  II  N    N   GGGG   !!!           |
|                                                                             |
|      You have enabled k-point parallelism (KPAR>1).                         |
|      This developmental code was originally  written by Paul Kent at ORNL,  |
|      and carefully double checked in Vienna.                                |
|      GW as well as linear response parallelism added by Martijn Marsman     |
|      and Georg Kresse.                                                      |
|      Carefully verify results versus KPAR=1.                                |
|      Report problems to Paul Kent and Vienna.                               |
|                                                                             |
 ----------------------------------------------------------------------------- 

 LDA part: xc-table for Pade appr. of Perdew
 POSCAR found type information on POSCAR  Ti
 POSCAR found :  1 types and      36 ions
 POSCAR, INCAR and KPOINTS ok, starting setup
 FFT: planning ...
 WAVECAR not read
 WARNING: random wavefunctions but no delay for mixing, default for NELMDL
 entering main loop
       N       E                     dE             d eps       ncg     rms          rms(c)
DAV:   1     0.733244676421E+03    0.73324E+03   -0.41834E+04  2208   0.113E+03
DAV:   2    -0.191713858282E+03   -0.92496E+03   -0.88826E+03  2208   0.253E+02
DAV:   3    -0.325211930324E+03   -0.13350E+03   -0.12293E+03  3256   0.919E+01
DAV:   4    -0.334254081254E+03   -0.90422E+01   -0.83702E+01  3176   0.288E+01
DAV:   5    -0.334747211428E+03   -0.49313E+00   -0.46937E+00  3584   0.534E+00    0.825E+01
DAV:   6    -0.538927711522E+03   -0.20418E+03   -0.29620E+03  4176   0.960E+01    0.111E+02
DAV:   7    -0.290702927724E+03    0.24822E+03   -0.44526E+03  4052   0.165E+02    0.367E+01
DAV:   8    -0.280649928994E+03    0.10053E+02   -0.49577E+02  3244   0.759E+01    0.368E+01
DAV:   9    -0.275818174948E+03    0.48318E+01   -0.34272E+01  3728   0.134E+01    0.300E+01
DAV:  10    -0.278975525570E+03   -0.31574E+01   -0.43569E+00  3524   0.500E+00    0.334E+01
DAV:  11    -0.264429587315E+03    0.14546E+02   -0.33779E+01  3120   0.203E+01    0.110E+01
DAV:  12    -0.263484695459E+03    0.94489E+00   -0.30357E+00  3552   0.518E+00    0.783E+00
DAV:  13    -0.262713680094E+03    0.77102E+00   -0.15431E+00  2784   0.466E+00    0.444E+00
DAV:  14    -0.262451457368E+03    0.26222E+00   -0.15065E+00  3196   0.405E+00    0.200E+00
DAV:  15    -0.262471434385E+03   -0.19977E-01   -0.93600E-02  3124   0.911E-01    0.158E+00
DAV:  16    -0.262489646697E+03   -0.18212E-01   -0.82819E-01  3488   0.239E+00    0.178E+00
DAV:  17    -0.262452885145E+03    0.36762E-01   -0.11925E-01  3276   0.114E+00    0.725E-01
DAV:  18    -0.262451546365E+03    0.13388E-02   -0.11557E-01  3208   0.113E+00    0.489E-01
DAV:  19    -0.262460666064E+03   -0.91197E-02   -0.12222E-02  3048   0.294E-01    0.533E-01
DAV:  20    -0.262457471749E+03    0.31943E-02   -0.16133E-02  3128   0.427E-01    0.130E-01
DAV:  21    -0.262459135820E+03   -0.16641E-02   -0.31143E-03  2640   0.195E-01    0.717E-02
DAV:  22    -0.262459419266E+03   -0.28345E-03   -0.35099E-04  2688   0.550E-02    0.258E-02
DAV:  23    -0.262459460038E+03   -0.40773E-04   -0.71127E-05  2896   0.271E-02    0.147E-02
DAV:  24    -0.262459463416E+03   -0.33778E-05   -0.91567E-06  1920   0.113E-02
   1 F= -.26245946E+03 E0= -.26240700E+03  d E =-.104924E+00
 running on   16 total cores
 distrk:  each k-point on    8 cores,    2 groups
 distr:  one band on    4 cores,    2 groups
 using from now: INCAR     
 vasp.5.4.4.18Apr17-6-g9f103f2a35 (build Nov 27 2019 20:08:17) complex          
  
 POSCAR found type information on POSCAR  Ti
 POSCAR found :  1 types and      68 ions
 scaLAPACK will be used

 ----------------------------------------------------------------------------- 
|                                                                             |
|           W    W    AA    RRRRR   N    N  II  N    N   GGGG   !!!           |
|           W    W   A  A   R    R  NN   N  II  NN   N  G    G  !!!           |
|           W    W  A    A  R    R  N N  N  II  N N  N  G       !!!           |
|           W WW W  AAAAAA  RRRRR   N  N N  II  N  N N  G  GGG   !            |
|           WW  WW  A    A  R   R   N   NN  II  N   NN  G    G                |
|           W    W  A    A  R    R  N    N  II  N    N   GGGG   !!!           |
|                                                                             |
|      You have enabled k-point parallelism (KPAR>1).                         |
|      This developmental code was originally  written by Paul Kent at ORNL,  |
|      and carefully double checked in Vienna.                                |
|      GW as well as linear response parallelism added by Martijn Marsman     |
|      and Georg Kresse.                                                      |
|      Carefully verify results versus KPAR=1.                                |
|      Report problems to Paul Kent and Vienna.                               |
|                                                                             |
 ----------------------------------------------------------------------------- 

 LDA part: xc-table for Pade appr. of Perdew
 POSCAR found type information on POSCAR  Ti
 POSCAR found :  1 types and      68 ions

 ----------------------------------------------------------------------------- 
|                                                                             |
|           W    W    AA    RRRRR   N    N  II  N    N   GGGG   !!!           |
|           W    W   A  A   R    R  NN   N  II  NN   N  G    G  !!!           |
|           W    W  A    A  R    R  N N  N  II  N N  N  G       !!!           |
|           W WW W  AAAAAA  RRRRR   N  N N  II  N  N N  G  GGG   !            |
|           WW  WW  A    A  R   R   N   NN  II  N   NN  G    G                |
|           W    W  A    A  R    R  N    N  II  N    N   GGGG   !!!           |
|                                                                             |
|      The distance between some ions is very small                           |
|      please check the nearest neigbor list in the OUTCAR file               |
|          I HOPE YOU KNOW, WHAT YOU ARE  DOING                               |
|                                                                             |
 ----------------------------------------------------------------------------- 

 POSCAR, INCAR and KPOINTS ok, starting setup
 FFT: planning ...
 WAVECAR not read
 WARNING: random wavefunctions but no delay for mixing, default for NELMDL
 entering main loop
       N       E                     dE             d eps       ncg     rms          rms(c)
DAV:   1     0.121385541189E+04    0.12139E+04   -0.78363E+04  4128   0.124E+03
DAV:   2    -0.344760734170E+03   -0.15586E+04   -0.15124E+04  4128   0.279E+02
DAV:   3    -0.567987696826E+03   -0.22323E+03   -0.20706E+03  5920   0.987E+01
DAV:   4    -0.586472703186E+03   -0.18485E+02   -0.17154E+02  6024   0.287E+01
DAV:   5    -0.587291666522E+03   -0.81896E+00   -0.79186E+00  5880   0.488E+00    0.108E+02
DAV:   6    -0.134936151887E+04   -0.76207E+03   -0.77513E+03  8192   0.161E+02    0.134E+02
DAV:   7    -0.610029855159E+03    0.73933E+03   -0.91542E+03  7504   0.163E+02    0.647E+01
DAV:   8    -0.555500987089E+03    0.54529E+02   -0.20789E+03  7440   0.121E+02    0.630E+01
DAV:   9    -0.566685972384E+03   -0.11185E+02   -0.98760E+02  7408   0.891E+01    0.518E+01
DAV:  10    -0.523744854371E+03    0.42941E+02   -0.33970E+02  6944   0.492E+01    0.402E+01
DAV:  11    -0.518584660455E+03    0.51602E+01   -0.57220E+01  6592   0.176E+01    0.353E+01
DAV:  12    -0.516421385591E+03    0.21633E+01   -0.48869E+00  6192   0.519E+00    0.316E+01
DAV:  13    -0.513463218889E+03    0.29582E+01   -0.80800E+00  6392   0.743E+00    0.250E+01
DAV:  14    -0.510054236321E+03    0.34090E+01   -0.79385E+00  6168   0.748E+00    0.184E+01
DAV:  15    -0.508265789904E+03    0.17884E+01   -0.53298E+00  6328   0.627E+00    0.135E+01
DAV:  16    -0.507022090740E+03    0.12437E+01   -0.33672E+00  6184   0.525E+00    0.926E+00
DAV:  17    -0.506499614283E+03    0.52248E+00   -0.22340E+00  6208   0.412E+00    0.673E+00
DAV:  18    -0.506254612445E+03    0.24500E+00   -0.17065E+00  6480   0.344E+00    0.544E+00
DAV:  19    -0.505987569915E+03    0.26704E+00   -0.76730E-01  5896   0.254E+00    0.329E+00
DAV:  20    -0.505864410271E+03    0.12316E+00   -0.80421E-01  5720   0.249E+00    0.152E+00
DAV:  21    -0.505843815329E+03    0.20595E-01   -0.28382E-01  5976   0.155E+00    0.822E-01
DAV:  22    -0.505835390954E+03    0.84244E-02   -0.66656E-02  6112   0.760E-01    0.528E-01
DAV:  23    -0.505834050192E+03    0.13408E-02   -0.18467E-02  6368   0.349E-01    0.374E-01
DAV:  24    -0.505833545729E+03    0.50446E-03   -0.11802E-02  6312   0.274E-01    0.248E-01
DAV:  25    -0.505833214096E+03    0.33163E-03   -0.72205E-03  6280   0.214E-01    0.192E-01
DAV:  26    -0.505832933996E+03    0.28010E-03   -0.28170E-03  6224   0.128E-01    0.124E-01
DAV:  27    -0.505832895809E+03    0.38186E-04   -0.97186E-04  6248   0.817E-02    0.662E-02
DAV:  28    -0.505832886036E+03    0.97732E-05   -0.51973E-04  6216   0.559E-02    0.379E-02
DAV:  29    -0.505832871160E+03    0.14876E-04   -0.15860E-04  6264   0.322E-02    0.295E-02
DAV:  30    -0.505832854849E+03    0.16310E-04   -0.76435E-05  5856   0.217E-02    0.135E-02
DAV:  31    -0.505832852732E+03    0.21171E-05   -0.25122E-05  4320   0.141E-02
   1 F= -.50583285E+03 E0= -.50575502E+03  d E =-.155656E+00
Distance=1.000
 running on   16 total cores
 distrk:  each k-point on    8 cores,    2 groups
 distr:  one band on    4 cores,    2 groups
 using from now: INCAR     
 vasp.5.4.4.18Apr17-6-g9f103f2a35 (build Nov 27 2019 20:08:17) complex          
  
 POSCAR found type information on POSCAR  Ti
 POSCAR found :  1 types and      32 ions
 scaLAPACK will be used

 ----------------------------------------------------------------------------- 
|                                                                             |
|           W    W    AA    RRRRR   N    N  II  N    N   GGGG   !!!           |
|           W    W   A  A   R    R  NN   N  II  NN   N  G    G  !!!           |
|           W    W  A    A  R    R  N N  N  II  N N  N  G       !!!           |
|           W WW W  AAAAAA  RRRRR   N  N N  II  N  N N  G  GGG   !            |
|           WW  WW  A    A  R   R   N   NN  II  N   NN  G    G                |
|           W    W  A    A  R    R  N    N  II  N    N   GGGG   !!!           |
|                                                                             |
|      You have enabled k-point parallelism (KPAR>1).                         |
|      This developmental code was originally  written by Paul Kent at ORNL,  |
|      and carefully double checked in Vienna.                                |
|      GW as well as linear response parallelism added by Martijn Marsman     |
|      and Georg Kresse.                                                      |
|      Carefully verify results versus KPAR=1.                                |
|      Report problems to Paul Kent and Vienna.                               |
|                                                                             |
 ----------------------------------------------------------------------------- 

 LDA part: xc-table for Pade appr. of Perdew
 POSCAR found type information on POSCAR  Ti
 POSCAR found :  1 types and      32 ions
 POSCAR, INCAR and KPOINTS ok, starting setup
 FFT: planning ...
 WAVECAR not read
 entering main loop
       N       E                     dE             d eps       ncg     rms          rms(c)
DAV:   1     0.590418638566E+03    0.59042E+03   -0.36218E+04  1968   0.110E+03
DAV:   2    -0.166026529699E+03   -0.75645E+03   -0.72808E+03  1968   0.243E+02
DAV:   3    -0.277256957010E+03   -0.11123E+03   -0.10465E+03  3072   0.842E+01
DAV:   4    -0.286568450724E+03   -0.93115E+01   -0.86492E+01  3096   0.263E+01
DAV:   5    -0.287121748875E+03   -0.55330E+00   -0.52867E+00  3200   0.536E+00    0.670E+01
DAV:   6    -0.427176629445E+03   -0.14005E+03   -0.23697E+03  3704   0.967E+01    0.846E+01
DAV:   7    -0.249103677673E+03    0.17807E+03   -0.25733E+03  3448   0.155E+02    0.298E+01
DAV:   8    -0.254325868997E+03   -0.52222E+01   -0.50250E+02  3074   0.684E+01    0.317E+01
DAV:   9    -0.236207669617E+03    0.18118E+02   -0.10439E+02  3062   0.311E+01    0.199E+01
DAV:  10    -0.235642410610E+03    0.56526E+00   -0.11200E+01  3216   0.752E+00    0.177E+01
DAV:  11    -0.237208640422E+03   -0.15662E+01   -0.40795E+00  3256   0.487E+00    0.198E+01
DAV:  12    -0.233550506539E+03    0.36581E+01   -0.66545E+00  2888   0.964E+00    0.130E+01
DAV:  13    -0.230652285498E+03    0.28982E+01   -0.76839E+00  2954   0.100E+01    0.637E+00
DAV:  14    -0.230266066342E+03    0.38622E+00   -0.21845E+00  3214   0.375E+00    0.439E+00
DAV:  15    -0.230306999042E+03   -0.40933E-01   -0.10992E+00  2952   0.360E+00    0.481E+00
DAV:  16    -0.230025068091E+03    0.28193E+00   -0.26007E+00  3060   0.415E+00    0.182E+00
DAV:  17    -0.230022418330E+03    0.26498E-02   -0.15168E-01  3040   0.120E+00    0.120E+00
DAV:  18    -0.230002131217E+03    0.20287E-01   -0.10728E-01  3096   0.912E-01    0.361E-01
DAV:  19    -0.230003319111E+03   -0.11879E-02   -0.30052E-02  3312   0.414E-01    0.238E-01
DAV:  20    -0.230005425317E+03   -0.21062E-02   -0.15737E-02  2944   0.440E-01    0.220E-01
DAV:  21    -0.230006715988E+03   -0.12907E-02   -0.66876E-03  2888   0.270E-01    0.131E-01
DAV:  22    -0.230008250682E+03   -0.15347E-02   -0.30584E-03  2896   0.149E-01    0.736E-02
DAV:  23    -0.230008974924E+03   -0.72424E-03   -0.35680E-04  2536   0.565E-02    0.615E-02
DAV:  24    -0.230009065013E+03   -0.90089E-04   -0.22563E-04  2976   0.455E-02    0.246E-02
DAV:  25    -0.230009099416E+03   -0.34403E-04   -0.13133E-04  2904   0.340E-02    0.145E-02
DAV:  26    -0.230009100356E+03   -0.94013E-06   -0.12455E-05  1936   0.113E-02
   1 F= -.23000910E+03 E0= -.22995128E+03  d E =-.115648E+00
 running on   16 total cores
 distrk:  each k-point on    8 cores,    2 groups
 distr:  one band on    4 cores,    2 groups
 using from now: INCAR     
 vasp.5.4.4.18Apr17-6-g9f103f2a35 (build Nov 27 2019 20:08:17) complex          
  
 POSCAR found type information on POSCAR  Ti
 POSCAR found :  1 types and      36 ions
 scaLAPACK will be used

 ----------------------------------------------------------------------------- 
|                                                                             |
|           W    W    AA    RRRRR   N    N  II  N    N   GGGG   !!!           |
|           W    W   A  A   R    R  NN   N  II  NN   N  G    G  !!!           |
|           W    W  A    A  R    R  N N  N  II  N N  N  G       !!!           |
|           W WW W  AAAAAA  RRRRR   N  N N  II  N  N N  G  GGG   !            |
|           WW  WW  A    A  R   R   N   NN  II  N   NN  G    G                |
|           W    W  A    A  R    R  N    N  II  N    N   GGGG   !!!           |
|                                                                             |
|      You have enabled k-point parallelism (KPAR>1).                         |
|      This developmental code was originally  written by Paul Kent at ORNL,  |
|      and carefully double checked in Vienna.                                |
|      GW as well as linear response parallelism added by Martijn Marsman     |
|      and Georg Kresse.                                                      |
|      Carefully verify results versus KPAR=1.                                |
|      Report problems to Paul Kent and Vienna.                               |
|                                                                             |
 ----------------------------------------------------------------------------- 

 LDA part: xc-table for Pade appr. of Perdew
 POSCAR found type information on POSCAR  Ti
 POSCAR found :  1 types and      36 ions
 POSCAR, INCAR and KPOINTS ok, starting setup
 FFT: planning ...
 WAVECAR not read
 WARNING: random wavefunctions but no delay for mixing, default for NELMDL
 entering main loop
       N       E                     dE             d eps       ncg     rms          rms(c)
DAV:   1     0.734237551268E+03    0.73424E+03   -0.41829E+04  2208   0.113E+03
DAV:   2    -0.191173893363E+03   -0.92541E+03   -0.88898E+03  2208   0.254E+02
DAV:   3    -0.324870009417E+03   -0.13370E+03   -0.12290E+03  3208   0.919E+01
DAV:   4    -0.334242934330E+03   -0.93729E+01   -0.86094E+01  3168   0.290E+01
DAV:   5    -0.334746371379E+03   -0.50344E+00   -0.48056E+00  3536   0.550E+00    0.824E+01
DAV:   6    -0.537895686391E+03   -0.20315E+03   -0.29576E+03  4164   0.959E+01    0.110E+02
DAV:   7    -0.290387752760E+03    0.24751E+03   -0.44514E+03  4108   0.165E+02    0.367E+01
DAV:   8    -0.280674790853E+03    0.97130E+01   -0.49376E+02  3204   0.761E+01    0.368E+01
DAV:   9    -0.275995182310E+03    0.46796E+01   -0.34191E+01  3704   0.133E+01    0.302E+01
DAV:  10    -0.279073937538E+03   -0.30788E+01   -0.34468E+00  3512   0.470E+00    0.335E+01
DAV:  11    -0.264565590103E+03    0.14508E+02   -0.34394E+01  3176   0.204E+01    0.113E+01
DAV:  12    -0.263345212352E+03    0.12204E+01   -0.38790E+00  3528   0.595E+00    0.722E+00
DAV:  13    -0.262797515574E+03    0.54770E+00   -0.87610E-01  2896   0.347E+00    0.483E+00
DAV:  14    -0.262461679290E+03    0.33584E+00   -0.16587E+00  3000   0.463E+00    0.233E+00
DAV:  15    -0.262463560361E+03   -0.18811E-02   -0.79579E-02  3248   0.762E-01    0.152E+00
DAV:  16    -0.262462415794E+03    0.11446E-02   -0.35983E-01  3472   0.168E+00    0.110E+00
DAV:  17    -0.262449647730E+03    0.12768E-01   -0.19067E-01  2896   0.154E+00    0.526E-01
DAV:  18    -0.262451572557E+03   -0.19248E-02   -0.50243E-02  3368   0.670E-01    0.414E-01
DAV:  19    -0.262458285871E+03   -0.67133E-02   -0.41257E-02  3088   0.659E-01    0.492E-01
DAV:  20    -0.262456701523E+03    0.15843E-02   -0.13806E-02  2512   0.442E-01    0.922E-02
DAV:  21    -0.262458521004E+03   -0.18195E-02   -0.11716E-03  2760   0.101E-01    0.585E-02
DAV:  22    -0.262458794440E+03   -0.27344E-03   -0.77414E-04  3400   0.860E-02    0.474E-02
DAV:  23    -0.262458923938E+03   -0.12950E-03   -0.22393E-04  2584   0.522E-02    0.153E-02
DAV:  24    -0.262458935144E+03   -0.11206E-04   -0.68470E-05  3248   0.263E-02    0.138E-02
DAV:  25    -0.262458937085E+03   -0.19402E-05   -0.63734E-06  1688   0.937E-03
   1 F= -.26245894E+03 E0= -.26240648E+03  d E =-.104915E+00
 running on   16 total cores
 distrk:  each k-point on    8 cores,    2 groups
 distr:  one band on    4 cores,    2 groups
 using from now: INCAR     
 vasp.5.4.4.18Apr17-6-g9f103f2a35 (build Nov 27 2019 20:08:17) complex          
  
 POSCAR found type information on POSCAR  Ti
 POSCAR found :  1 types and      68 ions
 scaLAPACK will be used

 ----------------------------------------------------------------------------- 
|                                                                             |
|           W    W    AA    RRRRR   N    N  II  N    N   GGGG   !!!           |
|           W    W   A  A   R    R  NN   N  II  NN   N  G    G  !!!           |
|           W    W  A    A  R    R  N N  N  II  N N  N  G       !!!           |
|           W WW W  AAAAAA  RRRRR   N  N N  II  N  N N  G  GGG   !            |
|           WW  WW  A    A  R   R   N   NN  II  N   NN  G    G                |
|           W    W  A    A  R    R  N    N  II  N    N   GGGG   !!!           |
|                                                                             |
|      You have enabled k-point parallelism (KPAR>1).                         |
|      This developmental code was originally  written by Paul Kent at ORNL,  |
|      and carefully double checked in Vienna.                                |
|      GW as well as linear response parallelism added by Martijn Marsman     |
|      and Georg Kresse.                                                      |
|      Carefully verify results versus KPAR=1.                                |
|      Report problems to Paul Kent and Vienna.                               |
|                                                                             |
 ----------------------------------------------------------------------------- 

 LDA part: xc-table for Pade appr. of Perdew
 POSCAR found type information on POSCAR  Ti
 POSCAR found :  1 types and      68 ions
 POSCAR, INCAR and KPOINTS ok, starting setup
 FFT: planning ...
 WAVECAR not read
 WARNING: random wavefunctions but no delay for mixing, default for NELMDL
 entering main loop
       N       E                     dE             d eps       ncg     rms          rms(c)
DAV:   1     0.120620741616E+04    0.12062E+04   -0.78276E+04  4128   0.124E+03
DAV:   2    -0.344505810844E+03   -0.15507E+04   -0.15045E+04  4128   0.278E+02
DAV:   3    -0.569450645830E+03   -0.22494E+03   -0.20848E+03  6016   0.982E+01
DAV:   4    -0.587785495184E+03   -0.18335E+02   -0.17145E+02  6048   0.287E+01
DAV:   5    -0.588562703895E+03   -0.77721E+00   -0.75109E+00  5872   0.477E+00    0.107E+02
DAV:   6    -0.137000092149E+04   -0.78144E+03   -0.78922E+03  8196   0.162E+02    0.132E+02
DAV:   7    -0.608190300181E+03    0.76181E+03   -0.91094E+03  7540   0.162E+02    0.660E+01
DAV:   8    -0.549565212012E+03    0.58625E+02   -0.20604E+03  7136   0.127E+02    0.579E+01
DAV:   9    -0.572004635597E+03   -0.22439E+02   -0.83491E+02  7364   0.830E+01    0.517E+01
DAV:  10    -0.527000049015E+03    0.45005E+02   -0.30302E+02  6968   0.468E+01    0.402E+01
DAV:  11    -0.521071896958E+03    0.59282E+01   -0.54566E+01  6608   0.171E+01    0.350E+01
DAV:  12    -0.518669978237E+03    0.24019E+01   -0.45533E+00  6272   0.497E+00    0.315E+01
DAV:  13    -0.515438496755E+03    0.32315E+01   -0.59050E+00  6264   0.643E+00    0.251E+01
DAV:  14    -0.511886607142E+03    0.35519E+01   -0.10009E+01  6352   0.839E+00    0.181E+01
DAV:  15    -0.509728130714E+03    0.21585E+01   -0.48996E+00  6008   0.617E+00    0.125E+01
DAV:  16    -0.508824795199E+03    0.90334E+00   -0.33254E+00  6256   0.495E+00    0.941E+00
DAV:  17    -0.508156122474E+03    0.66867E+00   -0.20755E+00  6144   0.397E+00    0.646E+00
DAV:  18    -0.507736246909E+03    0.41988E+00   -0.21391E+00  6272   0.394E+00    0.371E+00
DAV:  19    -0.507582815808E+03    0.15343E+00   -0.11733E+00  6232   0.306E+00    0.187E+00
DAV:  20    -0.507548660597E+03    0.34155E-01   -0.47095E-01  6064   0.191E+00    0.102E+00
DAV:  21    -0.507540397565E+03    0.82630E-02   -0.15959E-01  6112   0.111E+00    0.892E-01
DAV:  22    -0.507537965728E+03    0.24318E-02   -0.44743E-02  6216   0.605E-01    0.760E-01
DAV:  23    -0.507536698688E+03    0.12670E-02   -0.31797E-02  6296   0.458E-01    0.564E-01
DAV:  24    -0.507535611546E+03    0.10871E-02   -0.28187E-02  6200   0.445E-01    0.291E-01
DAV:  25    -0.507534321484E+03    0.12901E-02   -0.79982E-03  6168   0.252E-01    0.142E-01
DAV:  26    -0.507534053842E+03    0.26764E-03   -0.20322E-03  6144   0.117E-01    0.822E-02
DAV:  27    -0.507534046079E+03    0.77627E-05   -0.72087E-04  6208   0.740E-02    0.711E-02
DAV:  28    -0.507534048754E+03   -0.26746E-05   -0.50555E-04  6152   0.567E-02    0.463E-02
DAV:  29    -0.507534019842E+03    0.28912E-04   -0.14706E-04  6216   0.339E-02    0.291E-02
DAV:  30    -0.507534003666E+03    0.16176E-04   -0.12006E-04  6048   0.287E-02    0.182E-02
DAV:  31    -0.507534002388E+03    0.12786E-05   -0.35653E-05  4912   0.166E-02
   1 F= -.50753400E+03 E0= -.50745487E+03  d E =-.158272E+00
Distance=1.500
 running on   16 total cores
 distrk:  each k-point on    8 cores,    2 groups
 distr:  one band on    4 cores,    2 groups
 using from now: INCAR     
 vasp.5.4.4.18Apr17-6-g9f103f2a35 (build Nov 27 2019 20:08:17) complex          
  
 POSCAR found type information on POSCAR  Ti
 POSCAR found :  1 types and      32 ions
 scaLAPACK will be used

 ----------------------------------------------------------------------------- 
|                                                                             |
|           W    W    AA    RRRRR   N    N  II  N    N   GGGG   !!!           |
|           W    W   A  A   R    R  NN   N  II  NN   N  G    G  !!!           |
|           W    W  A    A  R    R  N N  N  II  N N  N  G       !!!           |
|           W WW W  AAAAAA  RRRRR   N  N N  II  N  N N  G  GGG   !            |
|           WW  WW  A    A  R   R   N   NN  II  N   NN  G    G                |
|           W    W  A    A  R    R  N    N  II  N    N   GGGG   !!!           |
|                                                                             |
|      You have enabled k-point parallelism (KPAR>1).                         |
|      This developmental code was originally  written by Paul Kent at ORNL,  |
|      and carefully double checked in Vienna.                                |
|      GW as well as linear response parallelism added by Martijn Marsman     |
|      and Georg Kresse.                                                      |
|      Carefully verify results versus KPAR=1.                                |
|      Report problems to Paul Kent and Vienna.                               |
|                                                                             |
 ----------------------------------------------------------------------------- 

 LDA part: xc-table for Pade appr. of Perdew
 POSCAR found type information on POSCAR  Ti
 POSCAR found :  1 types and      32 ions
 POSCAR, INCAR and KPOINTS ok, starting setup
 FFT: planning ...
 WAVECAR not read
 entering main loop
       N       E                     dE             d eps       ncg     rms          rms(c)
DAV:   1     0.590520435606E+03    0.59052E+03   -0.36193E+04  1968   0.110E+03
DAV:   2    -0.165737339471E+03   -0.75626E+03   -0.72855E+03  1968   0.243E+02
DAV:   3    -0.277298087813E+03   -0.11156E+03   -0.10520E+03  3072   0.844E+01
DAV:   4    -0.286558765983E+03   -0.92607E+01   -0.85958E+01  3096   0.262E+01
DAV:   5    -0.287116586482E+03   -0.55782E+00   -0.53252E+00  3168   0.530E+00    0.670E+01
DAV:   6    -0.425743435413E+03   -0.13863E+03   -0.23470E+03  3672   0.966E+01    0.842E+01
DAV:   7    -0.248710148514E+03    0.17703E+03   -0.25529E+03  3424   0.155E+02    0.295E+01
DAV:   8    -0.253843352286E+03   -0.51332E+01   -0.49622E+02  3026   0.676E+01    0.314E+01
DAV:   9    -0.236139507226E+03    0.17704E+02   -0.10212E+02  3012   0.306E+01    0.198E+01
DAV:  10    -0.235624986411E+03    0.51452E+00   -0.11170E+01  3232   0.739E+00    0.177E+01
DAV:  11    -0.237258657702E+03   -0.16337E+01   -0.44661E+00  3248   0.513E+00    0.198E+01
DAV:  12    -0.233866494583E+03    0.33922E+01   -0.57851E+00  2912   0.886E+00    0.136E+01
DAV:  13    -0.230645337061E+03    0.32212E+01   -0.85891E+00  2906   0.107E+01    0.629E+00
DAV:  14    -0.230278888277E+03    0.36645E+00   -0.21712E+00  3256   0.369E+00    0.443E+00
DAV:  15    -0.230289096594E+03   -0.10208E-01   -0.12825E+00  2872   0.404E+00    0.472E+00
DAV:  16    -0.230023487159E+03    0.26561E+00   -0.23641E+00  3094   0.402E+00    0.173E+00
DAV:  17    -0.230019018471E+03    0.44687E-02   -0.14106E-01  3024   0.119E+00    0.108E+00
DAV:  18    -0.230002172075E+03    0.16846E-01   -0.98312E-02  3144   0.887E-01    0.359E-01
DAV:  19    -0.230003272541E+03   -0.11005E-02   -0.23694E-02  3304   0.363E-01    0.231E-01
DAV:  20    -0.230005283403E+03   -0.20109E-02   -0.14734E-02  2936   0.432E-01    0.224E-01
DAV:  21    -0.230006530977E+03   -0.12476E-02   -0.72353E-03  2872   0.279E-01    0.144E-01
DAV:  22    -0.230008043945E+03   -0.15130E-02   -0.34148E-03  2880   0.159E-01    0.715E-02
DAV:  23    -0.230008825943E+03   -0.78200E-03   -0.39086E-04  2512   0.636E-02    0.606E-02
DAV:  24    -0.230008971878E+03   -0.14594E-03   -0.28180E-04  2960   0.510E-02    0.200E-02
DAV:  25    -0.230009008523E+03   -0.36645E-04   -0.82541E-05  2712   0.288E-02    0.104E-02
DAV:  26    -0.230009011732E+03   -0.32092E-05   -0.11727E-05  1920   0.914E-03
   1 F= -.23000901E+03 E0= -.22995118E+03  d E =-.115656E+00
 running on   16 total cores
 distrk:  each k-point on    8 cores,    2 groups
 distr:  one band on    4 cores,    2 groups
 using from now: INCAR     
 vasp.5.4.4.18Apr17-6-g9f103f2a35 (build Nov 27 2019 20:08:17) complex          
  
 POSCAR found type information on POSCAR  Ti
 POSCAR found :  1 types and      36 ions
 scaLAPACK will be used

 ----------------------------------------------------------------------------- 
|                                                                             |
|           W    W    AA    RRRRR   N    N  II  N    N   GGGG   !!!           |
|           W    W   A  A   R    R  NN   N  II  NN   N  G    G  !!!           |
|           W    W  A    A  R    R  N N  N  II  N N  N  G       !!!           |
|           W WW W  AAAAAA  RRRRR   N  N N  II  N  N N  G  GGG   !            |
|           WW  WW  A    A  R   R   N   NN  II  N   NN  G    G                |
|           W    W  A    A  R    R  N    N  II  N    N   GGGG   !!!           |
|                                                                             |
|      You have enabled k-point parallelism (KPAR>1).                         |
|      This developmental code was originally  written by Paul Kent at ORNL,  |
|      and carefully double checked in Vienna.                                |
|      GW as well as linear response parallelism added by Martijn Marsman     |
|      and Georg Kresse.                                                      |
|      Carefully verify results versus KPAR=1.                                |
|      Report problems to Paul Kent and Vienna.                               |
|                                                                             |
 ----------------------------------------------------------------------------- 

 LDA part: xc-table for Pade appr. of Perdew
 POSCAR found type information on POSCAR  Ti
 POSCAR found :  1 types and      36 ions
 POSCAR, INCAR and KPOINTS ok, starting setup
 FFT: planning ...
 WAVECAR not read
 WARNING: random wavefunctions but no delay for mixing, default for NELMDL
 entering main loop
       N       E                     dE             d eps       ncg     rms          rms(c)
DAV:   1     0.735680740222E+03    0.73568E+03   -0.41765E+04  2208   0.113E+03
DAV:   2    -0.191560526122E+03   -0.92724E+03   -0.89024E+03  2208   0.253E+02
DAV:   3    -0.325121541104E+03   -0.13356E+03   -0.12300E+03  3248   0.920E+01
DAV:   4    -0.334277483946E+03   -0.91559E+01   -0.84708E+01  3176   0.288E+01
DAV:   5    -0.334745961127E+03   -0.46848E+00   -0.45058E+00  3552   0.538E+00    0.824E+01
DAV:   6    -0.537636928141E+03   -0.20289E+03   -0.29373E+03  4168   0.958E+01    0.110E+02
DAV:   7    -0.291381246618E+03    0.24626E+03   -0.44596E+03  4072   0.165E+02    0.369E+01
DAV:   8    -0.280629491300E+03    0.10752E+02   -0.49697E+02  3216   0.763E+01    0.368E+01
DAV:   9    -0.275929749916E+03    0.46997E+01   -0.34597E+01  3656   0.134E+01    0.301E+01
DAV:  10    -0.279156777978E+03   -0.32270E+01   -0.42261E+00  3456   0.509E+00    0.336E+01
DAV:  11    -0.264043796575E+03    0.15113E+02   -0.37764E+01  3188   0.213E+01    0.990E+00
DAV:  12    -0.263371939858E+03    0.67186E+00   -0.25381E+00  3592   0.482E+00    0.740E+00
DAV:  13    -0.262650821194E+03    0.72112E+00   -0.15565E+00  2872   0.463E+00    0.406E+00
DAV:  14    -0.262453700224E+03    0.19712E+00   -0.90197E-01  3232   0.304E+00    0.180E+00
DAV:  15    -0.262465026703E+03   -0.11326E-01   -0.33408E-02  3160   0.464E-01    0.146E+00
DAV:  16    -0.262484975473E+03   -0.19949E-01   -0.70006E-01  3456   0.226E+00    0.169E+00
DAV:  17    -0.262450686814E+03    0.34289E-01   -0.12446E-01  3280   0.111E+00    0.625E-01
DAV:  18    -0.262455126318E+03   -0.44395E-02   -0.13745E-01  3136   0.127E+00    0.646E-01
DAV:  19    -0.262459854616E+03   -0.47283E-02   -0.67509E-03  2688   0.209E-01    0.570E-01
DAV:  20    -0.262456562272E+03    0.32923E-02   -0.17503E-02  2984   0.460E-01    0.124E-01
DAV:  21    -0.262458437554E+03   -0.18753E-02   -0.24665E-03  2872   0.159E-01    0.466E-02
DAV:  22    -0.262458686794E+03   -0.24924E-03   -0.23900E-04  3104   0.430E-02    0.296E-02
DAV:  23    -0.262458819203E+03   -0.13241E-03   -0.82789E-05  2472   0.315E-02    0.118E-02
DAV:  24    -0.262458830474E+03   -0.11271E-04   -0.18903E-05  2328   0.139E-02    0.508E-03
DAV:  25    -0.262458832132E+03   -0.16581E-05   -0.26782E-06  1632   0.569E-03
   1 F= -.26245883E+03 E0= -.26240638E+03  d E =-.104909E+00
 running on   16 total cores
 distrk:  each k-point on    8 cores,    2 groups
 distr:  one band on    4 cores,    2 groups
 using from now: INCAR     
 vasp.5.4.4.18Apr17-6-g9f103f2a35 (build Nov 27 2019 20:08:17) complex          
  
 POSCAR found type information on POSCAR  Ti
 POSCAR found :  1 types and      68 ions
 scaLAPACK will be used

 ----------------------------------------------------------------------------- 
|                                                                             |
|           W    W    AA    RRRRR   N    N  II  N    N   GGGG   !!!           |
|           W    W   A  A   R    R  NN   N  II  NN   N  G    G  !!!           |
|           W    W  A    A  R    R  N N  N  II  N N  N  G       !!!           |
|           W WW W  AAAAAA  RRRRR   N  N N  II  N  N N  G  GGG   !            |
|           WW  WW  A    A  R   R   N   NN  II  N   NN  G    G                |
|           W    W  A    A  R    R  N    N  II  N    N   GGGG   !!!           |
|                                                                             |
|      You have enabled k-point parallelism (KPAR>1).                         |
|      This developmental code was originally  written by Paul Kent at ORNL,  |
|      and carefully double checked in Vienna.                                |
|      GW as well as linear response parallelism added by Martijn Marsman     |
|      and Georg Kresse.                                                      |
|      Carefully verify results versus KPAR=1.                                |
|      Report problems to Paul Kent and Vienna.                               |
|                                                                             |
 ----------------------------------------------------------------------------- 

 LDA part: xc-table for Pade appr. of Perdew
 POSCAR found type information on POSCAR  Ti
 POSCAR found :  1 types and      68 ions
 POSCAR, INCAR and KPOINTS ok, starting setup
 FFT: planning ...
 WAVECAR not read
 WARNING: random wavefunctions but no delay for mixing, default for NELMDL
 entering main loop
       N       E                     dE             d eps       ncg     rms          rms(c)
DAV:   1     0.120356658987E+04    0.12036E+04   -0.78350E+04  4128   0.124E+03
DAV:   2    -0.345909023670E+03   -0.15495E+04   -0.15042E+04  4128   0.278E+02
DAV:   3    -0.570754124466E+03   -0.22485E+03   -0.20869E+03  6024   0.978E+01
DAV:   4    -0.589127862387E+03   -0.18374E+02   -0.17200E+02  6104   0.287E+01
DAV:   5    -0.589899683079E+03   -0.77182E+00   -0.74511E+00  5936   0.467E+00    0.107E+02
DAV:   6    -0.138690640879E+04   -0.79701E+03   -0.80167E+03  8180   0.162E+02    0.130E+02
DAV:   7    -0.609928637128E+03    0.77698E+03   -0.90278E+03  7556   0.160E+02    0.674E+01
DAV:   8    -0.544967786123E+03    0.64961E+02   -0.20835E+03  6872   0.132E+02    0.528E+01
DAV:   9    -0.575525917066E+03   -0.30558E+02   -0.78450E+02  7400   0.782E+01    0.514E+01
DAV:  10    -0.529446273486E+03    0.46080E+02   -0.28177E+02  7072   0.456E+01    0.403E+01
DAV:  11    -0.524044479270E+03    0.54018E+01   -0.56049E+01  6688   0.168E+01    0.359E+01
DAV:  12    -0.521240418996E+03    0.28041E+01   -0.56524E+00  6488   0.542E+00    0.323E+01
DAV:  13    -0.518250824696E+03    0.29896E+01   -0.29827E+00  6096   0.478E+00    0.274E+01
DAV:  14    -0.513512814288E+03    0.47380E+01   -0.12630E+01  6432   0.930E+00    0.178E+01
DAV:  15    -0.511110679304E+03    0.24021E+01   -0.44589E+00  5944   0.590E+00    0.123E+01
DAV:  16    -0.510408274465E+03    0.70240E+00   -0.25466E+00  6320   0.423E+00    0.994E+00
DAV:  17    -0.509482765211E+03    0.92551E+00   -0.27750E+00  6032   0.455E+00    0.636E+00
DAV:  18    -0.509016994765E+03    0.46577E+00   -0.29940E+00  6288   0.459E+00    0.323E+00
DAV:  19    -0.508882966637E+03    0.13403E+00   -0.83499E-01  6288   0.261E+00    0.163E+00
DAV:  20    -0.508860998037E+03    0.21969E-01   -0.21653E-01  6384   0.122E+00    0.104E+00
DAV:  21    -0.508882891646E+03   -0.21894E-01   -0.17664E-01  5928   0.114E+00    0.163E+00
DAV:  22    -0.508878217362E+03    0.46743E-02   -0.68511E-02  6224   0.744E-01    0.157E+00
DAV:  23    -0.508858818858E+03    0.19399E-01   -0.92212E-02  5976   0.830E-01    0.720E-01
DAV:  24    -0.508856376505E+03    0.24424E-02   -0.32418E-02  5720   0.521E-01    0.337E-01
DAV:  25    -0.508855376048E+03    0.10005E-02   -0.11196E-02  6008   0.308E-01    0.248E-01
DAV:  26    -0.508855214493E+03    0.16155E-03   -0.26828E-03  6104   0.144E-01    0.196E-01
DAV:  27    -0.508854910388E+03    0.30411E-03   -0.13390E-03  6400   0.996E-02    0.114E-01
DAV:  28    -0.508854881683E+03    0.28705E-04   -0.53767E-04  5880   0.584E-02    0.639E-02
DAV:  29    -0.508854852072E+03    0.29611E-04   -0.21765E-04  6072   0.446E-02    0.377E-02
DAV:  30    -0.508854840114E+03    0.11959E-04   -0.14452E-04  6136   0.273E-02    0.346E-02
DAV:  31    -0.508854823228E+03    0.16885E-04   -0.84832E-05  5968   0.228E-02    0.194E-02
DAV:  32    -0.508854819963E+03    0.32653E-05   -0.17616E-05  3856   0.123E-02
   1 F= -.50885482E+03 E0= -.50877507E+03  d E =-.159497E+00
Distance=2.000
 running on   16 total cores
 distrk:  each k-point on    8 cores,    2 groups
 distr:  one band on    4 cores,    2 groups
 using from now: INCAR     
 vasp.5.4.4.18Apr17-6-g9f103f2a35 (build Nov 27 2019 20:08:17) complex          
  
 POSCAR found type information on POSCAR  Ti
 POSCAR found :  1 types and      32 ions
 scaLAPACK will be used

 ----------------------------------------------------------------------------- 
|                                                                             |
|           W    W    AA    RRRRR   N    N  II  N    N   GGGG   !!!           |
|           W    W   A  A   R    R  NN   N  II  NN   N  G    G  !!!           |
|           W    W  A    A  R    R  N N  N  II  N N  N  G       !!!           |
|           W WW W  AAAAAA  RRRRR   N  N N  II  N  N N  G  GGG   !            |
|           WW  WW  A    A  R   R   N   NN  II  N   NN  G    G                |
|           W    W  A    A  R    R  N    N  II  N    N   GGGG   !!!           |
|                                                                             |
|      You have enabled k-point parallelism (KPAR>1).                         |
|      This developmental code was originally  written by Paul Kent at ORNL,  |
|      and carefully double checked in Vienna.                                |
|      GW as well as linear response parallelism added by Martijn Marsman     |
|      and Georg Kresse.                                                      |
|      Carefully verify results versus KPAR=1.                                |
|      Report problems to Paul Kent and Vienna.                               |
|                                                                             |
 ----------------------------------------------------------------------------- 

 LDA part: xc-table for Pade appr. of Perdew
 POSCAR found type information on POSCAR  Ti
 POSCAR found :  1 types and      32 ions
 POSCAR, INCAR and KPOINTS ok, starting setup
 FFT: planning ...
 WAVECAR not read
 entering main loop
       N       E                     dE             d eps       ncg     rms          rms(c)
DAV:   1     0.591029643820E+03    0.59103E+03   -0.36163E+04  1968   0.110E+03
DAV:   2    -0.165986506532E+03   -0.75702E+03   -0.72886E+03  1968   0.243E+02
DAV:   3    -0.277366219052E+03   -0.11138E+03   -0.10490E+03  3080   0.842E+01
DAV:   4    -0.286551398933E+03   -0.91852E+01   -0.85421E+01  3040   0.264E+01
DAV:   5    -0.287112439648E+03   -0.56104E+00   -0.53537E+00  3192   0.543E+00    0.669E+01
DAV:   6    -0.425377797264E+03   -0.13827E+03   -0.23415E+03  3680   0.965E+01    0.842E+01
DAV:   7    -0.249156292293E+03    0.17622E+03   -0.25545E+03  3416   0.155E+02    0.297E+01
DAV:   8    -0.254140619328E+03   -0.49843E+01   -0.50208E+02  3060   0.679E+01    0.315E+01
DAV:   9    -0.236174054461E+03    0.17967E+02   -0.10183E+02  3024   0.306E+01    0.198E+01
DAV:  10    -0.235641635733E+03    0.53242E+00   -0.11057E+01  3232   0.738E+00    0.177E+01
DAV:  11    -0.237176692911E+03   -0.15351E+01   -0.41341E+00  3248   0.494E+00    0.197E+01
DAV:  12    -0.234157247151E+03    0.30194E+01   -0.47771E+00  2952   0.799E+00    0.143E+01
DAV:  13    -0.230667035776E+03    0.34902E+01   -0.94719E+00  2880   0.113E+01    0.640E+00
DAV:  14    -0.230288044101E+03    0.37899E+00   -0.23104E+00  3248   0.385E+00    0.448E+00
DAV:  15    -0.230299992140E+03   -0.11948E-01   -0.12853E+00  2864   0.407E+00    0.477E+00
DAV:  16    -0.230026292433E+03    0.27370E+00   -0.23792E+00  3096   0.400E+00    0.180E+00
DAV:  17    -0.230021390435E+03    0.49020E-02   -0.14305E-01  3000   0.122E+00    0.113E+00
DAV:  18    -0.230002765751E+03    0.18625E-01   -0.10779E-01  3152   0.927E-01    0.398E-01
DAV:  19    -0.230003246182E+03   -0.48043E-03   -0.24134E-02  3288   0.374E-01    0.243E-01
DAV:  20    -0.230005234676E+03   -0.19885E-02   -0.15601E-02  2912   0.453E-01    0.235E-01
DAV:  21    -0.230006271114E+03   -0.10364E-02   -0.70039E-03  2800   0.280E-01    0.145E-01
DAV:  22    -0.230007755563E+03   -0.14844E-02   -0.33417E-03  2880   0.160E-01    0.802E-02
DAV:  23    -0.230008704044E+03   -0.94848E-03   -0.47472E-04  2392   0.734E-02    0.665E-02
DAV:  24    -0.230008881698E+03   -0.17765E-03   -0.31086E-04  2984   0.523E-02    0.204E-02
DAV:  25    -0.230008946089E+03   -0.64391E-04   -0.97905E-05  2776   0.304E-02    0.113E-02
DAV:  26    -0.230008950731E+03   -0.46424E-05   -0.14104E-05  1960   0.103E-02
   1 F= -.23000895E+03 E0= -.22995112E+03  d E =-.115653E+00
 running on   16 total cores
 distrk:  each k-point on    8 cores,    2 groups
 distr:  one band on    4 cores,    2 groups
 using from now: INCAR     
 vasp.5.4.4.18Apr17-6-g9f103f2a35 (build Nov 27 2019 20:08:17) complex          
  
 POSCAR found type information on POSCAR  Ti
 POSCAR found :  1 types and      36 ions
 scaLAPACK will be used

 ----------------------------------------------------------------------------- 
|                                                                             |
|           W    W    AA    RRRRR   N    N  II  N    N   GGGG   !!!           |
|           W    W   A  A   R    R  NN   N  II  NN   N  G    G  !!!           |
|           W    W  A    A  R    R  N N  N  II  N N  N  G       !!!           |
|           W WW W  AAAAAA  RRRRR   N  N N  II  N  N N  G  GGG   !            |
|           WW  WW  A    A  R   R   N   NN  II  N   NN  G    G                |
|           W    W  A    A  R    R  N    N  II  N    N   GGGG   !!!           |
|                                                                             |
|      You have enabled k-point parallelism (KPAR>1).                         |
|      This developmental code was originally  written by Paul Kent at ORNL,  |
|      and carefully double checked in Vienna.                                |
|      GW as well as linear response parallelism added by Martijn Marsman     |
|      and Georg Kresse.                                                      |
|      Carefully verify results versus KPAR=1.                                |
|      Report problems to Paul Kent and Vienna.                               |
|                                                                             |
 ----------------------------------------------------------------------------- 

 LDA part: xc-table for Pade appr. of Perdew
 POSCAR found type information on POSCAR  Ti
 POSCAR found :  1 types and      36 ions
 POSCAR, INCAR and KPOINTS ok, starting setup
 FFT: planning ...
 WAVECAR not read
 WARNING: random wavefunctions but no delay for mixing, default for NELMDL
 entering main loop
       N       E                     dE             d eps       ncg     rms          rms(c)
DAV:   1     0.735937027597E+03    0.73594E+03   -0.41873E+04  2208   0.113E+03
DAV:   2    -0.190251910081E+03   -0.92619E+03   -0.88931E+03  2208   0.253E+02
DAV:   3    -0.324902589643E+03   -0.13465E+03   -0.12391E+03  3208   0.918E+01
DAV:   4    -0.334266260159E+03   -0.93637E+01   -0.86481E+01  3208   0.292E+01
DAV:   5    -0.334745725211E+03   -0.47947E+00   -0.46050E+00  3568   0.542E+00    0.824E+01
DAV:   6    -0.537163063585E+03   -0.20242E+03   -0.29349E+03  4172   0.958E+01    0.110E+02
DAV:   7    -0.292173032798E+03    0.24499E+03   -0.44672E+03  4056   0.165E+02    0.370E+01
DAV:   8    -0.280638600281E+03    0.11534E+02   -0.49560E+02  3184   0.763E+01    0.368E+01
DAV:   9    -0.275922773979E+03    0.47158E+01   -0.34548E+01  3632   0.135E+01    0.301E+01
DAV:  10    -0.279287277630E+03   -0.33645E+01   -0.40032E+00  3488   0.508E+00    0.337E+01
DAV:  11    -0.264364598434E+03    0.14923E+02   -0.36187E+01  3160   0.209E+01    0.108E+01
DAV:  12    -0.263412350046E+03    0.95225E+00   -0.32611E+00  3568   0.547E+00    0.745E+00
DAV:  13    -0.262713382547E+03    0.69897E+00   -0.13285E+00  2848   0.433E+00    0.439E+00
DAV:  14    -0.262458012324E+03    0.25537E+00   -0.13470E+00  3144   0.401E+00    0.216E+00
DAV:  15    -0.262467477266E+03   -0.94649E-02   -0.54407E-02  3104   0.656E-01    0.155E+00
DAV:  16    -0.262484179317E+03   -0.16702E-01   -0.68112E-01  3472   0.219E+00    0.160E+00
DAV:  17    -0.262448943686E+03    0.35236E-01   -0.14370E-01  3244   0.122E+00    0.469E-01
DAV:  18    -0.262450709439E+03   -0.17658E-02   -0.62918E-02  3008   0.896E-01    0.431E-01
DAV:  19    -0.262460319409E+03   -0.96100E-02   -0.14971E-02  3080   0.339E-01    0.583E-01
DAV:  20    -0.262456697493E+03    0.36219E-02   -0.14356E-02  2828   0.420E-01    0.179E-01
DAV:  21    -0.262458128377E+03   -0.14309E-02   -0.44323E-03  2824   0.231E-01    0.544E-02
DAV:  22    -0.262458633373E+03   -0.50500E-03   -0.33913E-04  2824   0.480E-02    0.494E-02
DAV:  23    -0.262458778749E+03   -0.14538E-03   -0.25282E-04  2648   0.569E-02    0.144E-02
DAV:  24    -0.262458795848E+03   -0.17099E-04   -0.23533E-05  2416   0.167E-02    0.868E-03
DAV:  25    -0.262458795935E+03   -0.87100E-07   -0.67008E-06  1848   0.918E-03
   1 F= -.26245880E+03 E0= -.26240634E+03  d E =-.104911E+00
 running on   16 total cores
 distrk:  each k-point on    8 cores,    2 groups
 distr:  one band on    4 cores,    2 groups
 using from now: INCAR     
 vasp.5.4.4.18Apr17-6-g9f103f2a35 (build Nov 27 2019 20:08:17) complex          
  
 POSCAR found type information on POSCAR  Ti
 POSCAR found :  1 types and      68 ions
 scaLAPACK will be used

 ----------------------------------------------------------------------------- 
|                                                                             |
|           W    W    AA    RRRRR   N    N  II  N    N   GGGG   !!!           |
|           W    W   A  A   R    R  NN   N  II  NN   N  G    G  !!!           |
|           W    W  A    A  R    R  N N  N  II  N N  N  G       !!!           |
|           W WW W  AAAAAA  RRRRR   N  N N  II  N  N N  G  GGG   !            |
|           WW  WW  A    A  R   R   N   NN  II  N   NN  G    G                |
|           W    W  A    A  R    R  N    N  II  N    N   GGGG   !!!           |
|                                                                             |
|      You have enabled k-point parallelism (KPAR>1).                         |
|      This developmental code was originally  written by Paul Kent at ORNL,  |
|      and carefully double checked in Vienna.                                |
|      GW as well as linear response parallelism added by Martijn Marsman     |
|      and Georg Kresse.                                                      |
|      Carefully verify results versus KPAR=1.                                |
|      Report problems to Paul Kent and Vienna.                               |
|                                                                             |
 ----------------------------------------------------------------------------- 

 LDA part: xc-table for Pade appr. of Perdew
 POSCAR found type information on POSCAR  Ti
 POSCAR found :  1 types and      68 ions
 POSCAR, INCAR and KPOINTS ok, starting setup
 FFT: planning ...
 WAVECAR not read
 WARNING: random wavefunctions but no delay for mixing, default for NELMDL
 entering main loop
       N       E                     dE             d eps       ncg     rms          rms(c)
DAV:   1     0.119436351148E+04    0.11944E+04   -0.78187E+04  4128   0.124E+03
DAV:   2    -0.347930912798E+03   -0.15423E+04   -0.14963E+04  4128   0.277E+02
DAV:   3    -0.571934841377E+03   -0.22400E+03   -0.20753E+03  6024   0.973E+01
DAV:   4    -0.590503660830E+03   -0.18569E+02   -0.17349E+02  6144   0.283E+01
DAV:   5    -0.591302359903E+03   -0.79870E+00   -0.76928E+00  6008   0.473E+00    0.107E+02
DAV:   6    -0.139901286903E+04   -0.80771E+03   -0.81011E+03  8136   0.163E+02    0.128E+02
DAV:   7    -0.614438983872E+03    0.78457E+03   -0.89303E+03  7568   0.158E+02    0.697E+01
DAV:   8    -0.541925212887E+03    0.72514E+02   -0.21482E+03  6624   0.137E+02    0.497E+01
DAV:   9    -0.580488893994E+03   -0.38564E+02   -0.80483E+02  7360   0.761E+01    0.517E+01
DAV:  10    -0.532456082779E+03    0.48033E+02   -0.29593E+02  7144   0.463E+01    0.409E+01
DAV:  11    -0.527032368529E+03    0.54237E+01   -0.60409E+01  6728   0.172E+01    0.369E+01
DAV:  12    -0.523866831711E+03    0.31655E+01   -0.61845E+00  6536   0.551E+00    0.334E+01
DAV:  13    -0.520925928603E+03    0.29409E+01   -0.23002E+00  5904   0.420E+00    0.291E+01
DAV:  14    -0.514882148896E+03    0.60438E+01   -0.14371E+01  6344   0.977E+00    0.178E+01
DAV:  15    -0.512419755261E+03    0.24624E+01   -0.37863E+00  5968   0.549E+00    0.128E+01
DAV:  16    -0.511757544776E+03    0.66221E+00   -0.20079E+00  6312   0.372E+00    0.107E+01
DAV:  17    -0.510903237941E+03    0.85431E+00   -0.27706E+00  6296   0.445E+00    0.793E+00
DAV:  18    -0.510059072685E+03    0.84417E+00   -0.36483E+00  6256   0.503E+00    0.365E+00
DAV:  19    -0.509896116934E+03    0.16296E+00   -0.92914E-01  6256   0.267E+00    0.188E+00
DAV:  20    -0.509872650192E+03    0.23467E-01   -0.18046E-01  6416   0.109E+00    0.139E+00
DAV:  21    -0.509936938125E+03   -0.64288E-01   -0.23535E-01  6000   0.131E+00    0.245E+00
DAV:  22    -0.509899840999E+03    0.37097E-01   -0.11102E-01  6216   0.966E-01    0.205E+00
DAV:  23    -0.509860517432E+03    0.39324E-01   -0.20152E-01  5528   0.125E+00    0.716E-01
DAV:  24    -0.509858407670E+03    0.21098E-02   -0.43336E-02  5888   0.617E-01    0.408E-01
DAV:  25    -0.509856971786E+03    0.14359E-02   -0.18227E-02  6024   0.391E-01    0.294E-01
DAV:  26    -0.509856809005E+03    0.16278E-03   -0.41785E-03  6064   0.188E-01    0.274E-01
DAV:  27    -0.509856025109E+03    0.78390E-03   -0.26181E-03  6584   0.142E-01    0.146E-01
DAV:  28    -0.509855991840E+03    0.33269E-04   -0.73230E-04  6032   0.703E-02    0.758E-02
DAV:  29    -0.509855987742E+03    0.40983E-05   -0.32050E-04  6232   0.503E-02    0.523E-02
DAV:  30    -0.509855956659E+03    0.31083E-04   -0.19204E-04  6192   0.323E-02    0.455E-02
DAV:  31    -0.509855929183E+03    0.27475E-04   -0.14125E-04  6232   0.296E-02    0.270E-02
DAV:  32    -0.509855921515E+03    0.76684E-05   -0.44114E-05  5456   0.189E-02    0.124E-02
DAV:  33    -0.509855918216E+03    0.32986E-05   -0.64947E-06  2728   0.864E-03
   1 F= -.50985592E+03 E0= -.50977676E+03  d E =-.158315E+00
Distance=2.500
 running on   16 total cores
 distrk:  each k-point on    8 cores,    2 groups
 distr:  one band on    4 cores,    2 groups
 using from now: INCAR     
 vasp.5.4.4.18Apr17-6-g9f103f2a35 (build Nov 27 2019 20:08:17) complex          
  
 POSCAR found type information on POSCAR  Ti
 POSCAR found :  1 types and      32 ions
 scaLAPACK will be used

 ----------------------------------------------------------------------------- 
|                                                                             |
|           W    W    AA    RRRRR   N    N  II  N    N   GGGG   !!!           |
|           W    W   A  A   R    R  NN   N  II  NN   N  G    G  !!!           |
|           W    W  A    A  R    R  N N  N  II  N N  N  G       !!!           |
|           W WW W  AAAAAA  RRRRR   N  N N  II  N  N N  G  GGG   !            |
|           WW  WW  A    A  R   R   N   NN  II  N   NN  G    G                |
|           W    W  A    A  R    R  N    N  II  N    N   GGGG   !!!           |
|                                                                             |
|      You have enabled k-point parallelism (KPAR>1).                         |
|      This developmental code was originally  written by Paul Kent at ORNL,  |
|      and carefully double checked in Vienna.                                |
|      GW as well as linear response parallelism added by Martijn Marsman     |
|      and Georg Kresse.                                                      |
|      Carefully verify results versus KPAR=1.                                |
|      Report problems to Paul Kent and Vienna.                               |
|                                                                             |
 ----------------------------------------------------------------------------- 

 LDA part: xc-table for Pade appr. of Perdew
 POSCAR found type information on POSCAR  Ti
 POSCAR found :  1 types and      32 ions
 POSCAR, INCAR and KPOINTS ok, starting setup
 FFT: planning ...
 WAVECAR not read
 entering main loop
       N       E                     dE             d eps       ncg     rms          rms(c)
DAV:   1     0.591459535786E+03    0.59146E+03   -0.36112E+04  1968   0.110E+03
DAV:   2    -0.166406196145E+03   -0.75787E+03   -0.72967E+03  1968   0.243E+02
DAV:   3    -0.277604610542E+03   -0.11120E+03   -0.10500E+03  3096   0.843E+01
DAV:   4    -0.286547665529E+03   -0.89431E+01   -0.82943E+01  3072   0.262E+01
DAV:   5    -0.287113352887E+03   -0.56569E+00   -0.53813E+00  3192   0.529E+00    0.670E+01
DAV:   6    -0.425637878614E+03   -0.13852E+03   -0.23488E+03  3680   0.965E+01    0.841E+01
DAV:   7    -0.248846825583E+03    0.17679E+03   -0.25609E+03  3456   0.155E+02    0.296E+01
DAV:   8    -0.253262570881E+03   -0.44157E+01   -0.49160E+02  3022   0.672E+01    0.313E+01
DAV:   9    -0.236136770170E+03    0.17126E+02   -0.99592E+01  3030   0.303E+01    0.197E+01
DAV:  10    -0.235680580221E+03    0.45619E+00   -0.11317E+01  3224   0.736E+00    0.177E+01
DAV:  11    -0.237140871762E+03   -0.14603E+01   -0.40279E+00  3216   0.482E+00    0.197E+01
DAV:  12    -0.233292762206E+03    0.38481E+01   -0.72240E+00  2872   0.101E+01    0.124E+01
DAV:  13    -0.230707611896E+03    0.25852E+01   -0.62639E+00  3006   0.895E+00    0.651E+00
DAV:  14    -0.230287491047E+03    0.42012E+00   -0.22904E+00  3264   0.392E+00    0.454E+00
DAV:  15    -0.230312755240E+03   -0.25264E-01   -0.11084E+00  2888   0.370E+00    0.487E+00
DAV:  16    -0.230022995101E+03    0.28976E+00   -0.24996E+00  3072   0.410E+00    0.171E+00
DAV:  17    -0.230025135018E+03   -0.21399E-02   -0.15217E-01  3016   0.123E+00    0.120E+00
DAV:  18    -0.230003401133E+03    0.21734E-01   -0.11404E-01  3072   0.965E-01    0.389E-01
DAV:  19    -0.230003367690E+03    0.33443E-04   -0.27884E-02  3304   0.418E-01    0.222E-01
DAV:  20    -0.230005515909E+03   -0.21482E-02   -0.13962E-02  2944   0.416E-01    0.229E-01
DAV:  21    -0.230006329690E+03   -0.81378E-03   -0.68259E-03  2784   0.284E-01    0.139E-01
DAV:  22    -0.230007889913E+03   -0.15602E-02   -0.36199E-03  2976   0.161E-01    0.880E-02
DAV:  23    -0.230008794173E+03   -0.90426E-03   -0.46818E-04  2456   0.677E-02    0.577E-02
DAV:  24    -0.230009053951E+03   -0.25978E-03   -0.27305E-04  2952   0.453E-02    0.168E-02
DAV:  25    -0.230009110370E+03   -0.56420E-04   -0.86258E-05  2824   0.255E-02    0.106E-02
DAV:  26    -0.230009113296E+03   -0.29258E-05   -0.11625E-05  1952   0.103E-02
   1 F= -.23000911E+03 E0= -.22995129E+03  d E =-.115653E+00
 running on   16 total cores
 distrk:  each k-point on    8 cores,    2 groups
 distr:  one band on    4 cores,    2 groups
 using from now: INCAR     
 vasp.5.4.4.18Apr17-6-g9f103f2a35 (build Nov 27 2019 20:08:17) complex          
  
 POSCAR found type information on POSCAR  Ti
 POSCAR found :  1 types and      36 ions
 scaLAPACK will be used

 ----------------------------------------------------------------------------- 
|                                                                             |
|           W    W    AA    RRRRR   N    N  II  N    N   GGGG   !!!           |
|           W    W   A  A   R    R  NN   N  II  NN   N  G    G  !!!           |
|           W    W  A    A  R    R  N N  N  II  N N  N  G       !!!           |
|           W WW W  AAAAAA  RRRRR   N  N N  II  N  N N  G  GGG   !            |
|           WW  WW  A    A  R   R   N   NN  II  N   NN  G    G                |
|           W    W  A    A  R    R  N    N  II  N    N   GGGG   !!!           |
|                                                                             |
|      You have enabled k-point parallelism (KPAR>1).                         |
|      This developmental code was originally  written by Paul Kent at ORNL,  |
|      and carefully double checked in Vienna.                                |
|      GW as well as linear response parallelism added by Martijn Marsman     |
|      and Georg Kresse.                                                      |
|      Carefully verify results versus KPAR=1.                                |
|      Report problems to Paul Kent and Vienna.                               |
|                                                                             |
 ----------------------------------------------------------------------------- 

 LDA part: xc-table for Pade appr. of Perdew
 POSCAR found type information on POSCAR  Ti
 POSCAR found :  1 types and      36 ions
 POSCAR, INCAR and KPOINTS ok, starting setup
 FFT: planning ...
 WAVECAR not read
 WARNING: random wavefunctions but no delay for mixing, default for NELMDL
 entering main loop
       N       E                     dE             d eps       ncg     rms          rms(c)
DAV:   1     0.732733191228E+03    0.73273E+03   -0.41739E+04  2208   0.112E+03
DAV:   2    -0.191782293304E+03   -0.92452E+03   -0.88817E+03  2208   0.252E+02
DAV:   3    -0.324968686938E+03   -0.13319E+03   -0.12243E+03  3232   0.913E+01
DAV:   4    -0.334229392116E+03   -0.92607E+01   -0.85513E+01  3160   0.290E+01
DAV:   5    -0.334744130494E+03   -0.51474E+00   -0.49139E+00  3560   0.547E+00    0.825E+01
DAV:   6    -0.536763629056E+03   -0.20202E+03   -0.29355E+03  4160   0.957E+01    0.110E+02
DAV:   7    -0.292717485923E+03    0.24405E+03   -0.44971E+03  4088   0.165E+02    0.371E+01
DAV:   8    -0.280853323959E+03    0.11864E+02   -0.49139E+02  3208   0.766E+01    0.369E+01
DAV:   9    -0.276097851365E+03    0.47555E+01   -0.34414E+01  3696   0.133E+01    0.303E+01
DAV:  10    -0.279454699847E+03   -0.33568E+01   -0.38693E+00  3528   0.492E+00    0.339E+01
DAV:  11    -0.264812685594E+03    0.14642E+02   -0.33846E+01  3164   0.203E+01    0.120E+01
DAV:  12    -0.263392795662E+03    0.14199E+01   -0.43493E+00  3520   0.635E+00    0.740E+00
DAV:  13    -0.262820660323E+03    0.57214E+00   -0.91201E-01  2864   0.354E+00    0.498E+00
DAV:  14    -0.262472153026E+03    0.34851E+00   -0.16153E+00  2952   0.464E+00    0.244E+00
DAV:  15    -0.262463402719E+03    0.87503E-02   -0.90425E-02  3672   0.731E-01    0.148E+00
DAV:  16    -0.262451870729E+03    0.11532E-01   -0.76698E-02  3536   0.805E-01    0.726E-01
DAV:  17    -0.262448597477E+03    0.32733E-02   -0.54182E-02  3592   0.665E-01    0.359E-01
DAV:  18    -0.262465064872E+03   -0.16467E-01   -0.13252E-01  3016   0.125E+00    0.942E-01
DAV:  19    -0.262456454473E+03    0.86104E-02   -0.41590E-02  2996   0.651E-01    0.364E-01
DAV:  20    -0.262456883355E+03   -0.42888E-03   -0.60637E-03  2432   0.314E-01    0.121E-01
DAV:  21    -0.262458269997E+03   -0.13866E-02   -0.26191E-03  3056   0.173E-01    0.968E-02
DAV:  22    -0.262458833769E+03   -0.56377E-03   -0.84760E-04  2600   0.109E-01    0.400E-02
DAV:  23    -0.262458965169E+03   -0.13140E-03   -0.96168E-05  2600   0.276E-02    0.341E-02
DAV:  24    -0.262458958954E+03    0.62150E-05   -0.17782E-04  3512   0.375E-02    0.138E-02
DAV:  25    -0.262458956725E+03    0.22290E-05   -0.16192E-05  2200   0.153E-02
   1 F= -.26245896E+03 E0= -.26240650E+03  d E =-.104910E+00
 running on   16 total cores
 distrk:  each k-point on    8 cores,    2 groups
 distr:  one band on    4 cores,    2 groups
 using from now: INCAR     
 vasp.5.4.4.18Apr17-6-g9f103f2a35 (build Nov 27 2019 20:08:17) complex          
  
 POSCAR found type information on POSCAR  Ti
 POSCAR found :  1 types and      68 ions
 scaLAPACK will be used

 ----------------------------------------------------------------------------- 
|                                                                             |
|           W    W    AA    RRRRR   N    N  II  N    N   GGGG   !!!           |
|           W    W   A  A   R    R  NN   N  II  NN   N  G    G  !!!           |
|           W    W  A    A  R    R  N N  N  II  N N  N  G       !!!           |
|           W WW W  AAAAAA  RRRRR   N  N N  II  N  N N  G  GGG   !            |
|           WW  WW  A    A  R   R   N   NN  II  N   NN  G    G                |
|           W    W  A    A  R    R  N    N  II  N    N   GGGG   !!!           |
|                                                                             |
|      You have enabled k-point parallelism (KPAR>1).                         |
|      This developmental code was originally  written by Paul Kent at ORNL,  |
|      and carefully double checked in Vienna.                                |
|      GW as well as linear response parallelism added by Martijn Marsman     |
|      and Georg Kresse.                                                      |
|      Carefully verify results versus KPAR=1.                                |
|      Report problems to Paul Kent and Vienna.                               |
|                                                                             |
 ----------------------------------------------------------------------------- 

 LDA part: xc-table for Pade appr. of Perdew
 POSCAR found type information on POSCAR  Ti
 POSCAR found :  1 types and      68 ions
 POSCAR, INCAR and KPOINTS ok, starting setup
 FFT: planning ...
 WAVECAR not read
 WARNING: random wavefunctions but no delay for mixing, default for NELMDL
 entering main loop
       N       E                     dE             d eps       ncg     rms          rms(c)
DAV:   1     0.119152571970E+04    0.11915E+04   -0.78210E+04  4128   0.124E+03
DAV:   2    -0.348891200442E+03   -0.15404E+04   -0.14942E+04  4128   0.277E+02
DAV:   3    -0.573358456241E+03   -0.22447E+03   -0.20786E+03  6040   0.971E+01
DAV:   4    -0.591961453819E+03   -0.18603E+02   -0.17457E+02  6176   0.284E+01
DAV:   5    -0.592754719316E+03   -0.79327E+00   -0.76543E+00  6024   0.463E+00    0.107E+02
DAV:   6    -0.141002945910E+04   -0.81727E+03   -0.81921E+03  8112   0.164E+02    0.126E+02
DAV:   7    -0.620417609778E+03    0.78961E+03   -0.88725E+03  7584   0.156E+02    0.718E+01
DAV:   8    -0.538823531268E+03    0.81594E+02   -0.22220E+03  6576   0.141E+02    0.471E+01
DAV:   9    -0.584483810092E+03   -0.45660E+02   -0.81407E+02  7456   0.743E+01    0.520E+01
DAV:  10    -0.534715019346E+03    0.49769E+02   -0.30354E+02  7216   0.468E+01    0.413E+01
DAV:  11    -0.529403110855E+03    0.53119E+01   -0.60949E+01  6736   0.169E+01    0.375E+01
DAV:  12    -0.525957761878E+03    0.34453E+01   -0.60006E+00  6552   0.519E+00    0.341E+01
DAV:  13    -0.522242660936E+03    0.37151E+01   -0.31516E+00  6008   0.479E+00    0.290E+01
DAV:  14    -0.515284915029E+03    0.69577E+01   -0.17377E+01  6400   0.105E+01    0.167E+01
DAV:  15    -0.513086398889E+03    0.21985E+01   -0.30778E+00  5872   0.499E+00    0.122E+01
DAV:  16    -0.512729744352E+03    0.35665E+00   -0.13242E+00  6384   0.299E+00    0.110E+01
DAV:  17    -0.512095359466E+03    0.63438E+00   -0.20059E+00  6440   0.374E+00    0.939E+00
DAV:  18    -0.510890953404E+03    0.12044E+01   -0.38068E+00  6192   0.515E+00    0.446E+00
DAV:  19    -0.510634468172E+03    0.25649E+00   -0.13773E+00  6144   0.326E+00    0.203E+00
DAV:  20    -0.510628860347E+03    0.56078E-02   -0.26146E-01  6200   0.132E+00    0.183E+00
DAV:  21    -0.510739778656E+03   -0.11092E+00   -0.29059E-01  5856   0.150E+00    0.319E+00
DAV:  22    -0.510665134021E+03    0.74645E-01   -0.12949E-01  6248   0.108E+00    0.258E+00
DAV:  23    -0.510598785159E+03    0.66349E-01   -0.32030E-01  5648   0.156E+00    0.988E-01
DAV:  24    -0.510592758675E+03    0.60265E-02   -0.73621E-02  5864   0.821E-01    0.493E-01
DAV:  25    -0.510591361929E+03    0.13967E-02   -0.21860E-02  6152   0.412E-01    0.352E-01
DAV:  26    -0.510590876689E+03    0.48524E-03   -0.63439E-03  6336   0.217E-01    0.319E-01
DAV:  27    -0.510589663910E+03    0.12128E-02   -0.45171E-03  6720   0.174E-01    0.177E-01
DAV:  28    -0.510589633697E+03    0.30214E-04   -0.14987E-03  6080   0.978E-02    0.914E-02
DAV:  29    -0.510589580001E+03    0.53695E-04   -0.63764E-04  6032   0.719E-02    0.463E-02
DAV:  30    -0.510589549821E+03    0.30180E-04   -0.22887E-04  6032   0.375E-02    0.392E-02
DAV:  31    -0.510589534192E+03    0.15629E-04   -0.12932E-04  6184   0.273E-02    0.266E-02
DAV:  32    -0.510589526200E+03    0.79924E-05   -0.68651E-05  5768   0.223E-02    0.149E-02
DAV:  33    -0.510589521936E+03    0.42636E-05   -0.87140E-06  2976   0.970E-03
   1 F= -.51058952E+03 E0= -.51051109E+03  d E =-.156858E+00
Distance=3.000
 running on   16 total cores
 distrk:  each k-point on    8 cores,    2 groups
 distr:  one band on    4 cores,    2 groups
 using from now: INCAR     
 vasp.5.4.4.18Apr17-6-g9f103f2a35 (build Nov 27 2019 20:08:17) complex          
  
 POSCAR found type information on POSCAR  Ti
 POSCAR found :  1 types and      32 ions
 scaLAPACK will be used

 ----------------------------------------------------------------------------- 
|                                                                             |
|           W    W    AA    RRRRR   N    N  II  N    N   GGGG   !!!           |
|           W    W   A  A   R    R  NN   N  II  NN   N  G    G  !!!           |
|           W    W  A    A  R    R  N N  N  II  N N  N  G       !!!           |
|           W WW W  AAAAAA  RRRRR   N  N N  II  N  N N  G  GGG   !            |
|           WW  WW  A    A  R   R   N   NN  II  N   NN  G    G                |
|           W    W  A    A  R    R  N    N  II  N    N   GGGG   !!!           |
|                                                                             |
|      You have enabled k-point parallelism (KPAR>1).                         |
|      This developmental code was originally  written by Paul Kent at ORNL,  |
|      and carefully double checked in Vienna.                                |
|      GW as well as linear response parallelism added by Martijn Marsman     |
|      and Georg Kresse.                                                      |
|      Carefully verify results versus KPAR=1.                                |
|      Report problems to Paul Kent and Vienna.                               |
|                                                                             |
 ----------------------------------------------------------------------------- 

 LDA part: xc-table for Pade appr. of Perdew
 POSCAR found type information on POSCAR  Ti
 POSCAR found :  1 types and      32 ions
 POSCAR, INCAR and KPOINTS ok, starting setup
 FFT: planning ...
 WAVECAR not read
 entering main loop
       N       E                     dE             d eps       ncg     rms          rms(c)
DAV:   1     0.592636877763E+03    0.59264E+03   -0.36161E+04  1968   0.110E+03
DAV:   2    -0.166180692086E+03   -0.75882E+03   -0.73043E+03  1968   0.243E+02
DAV:   3    -0.277623801997E+03   -0.11144E+03   -0.10533E+03  3104   0.841E+01
DAV:   4    -0.286570489164E+03   -0.89467E+01   -0.83073E+01  3088   0.261E+01
DAV:   5    -0.287118198822E+03   -0.54771E+00   -0.52149E+00  3192   0.527E+00    0.670E+01
DAV:   6    -0.424750067160E+03   -0.13763E+03   -0.23439E+03  3672   0.964E+01    0.843E+01
DAV:   7    -0.249300482023E+03    0.17545E+03   -0.25809E+03  3440   0.156E+02    0.296E+01
DAV:   8    -0.253064650933E+03   -0.37642E+01   -0.48627E+02  3008   0.671E+01    0.313E+01
DAV:   9    -0.236284117207E+03    0.16781E+02   -0.99145E+01  3032   0.303E+01    0.200E+01
DAV:  10    -0.235678112166E+03    0.60601E+00   -0.11268E+01  3240   0.734E+00    0.177E+01
DAV:  11    -0.237346744581E+03   -0.16686E+01   -0.40522E+00  3288   0.507E+00    0.201E+01
DAV:  12    -0.234098289742E+03    0.32485E+01   -0.59344E+00  3008   0.886E+00    0.142E+01
DAV:  13    -0.230617014059E+03    0.34813E+01   -0.94019E+00  2852   0.112E+01    0.620E+00
DAV:  14    -0.230308024166E+03    0.30899E+00   -0.18374E+00  3256   0.337E+00    0.443E+00
DAV:  15    -0.230232911724E+03    0.75112E-01   -0.14498E+00  2740   0.450E+00    0.425E+00
DAV:  16    -0.230016622011E+03    0.21629E+00   -0.17408E+00  3070   0.345E+00    0.148E+00
DAV:  17    -0.230012574970E+03    0.40470E-02   -0.10846E-01  3016   0.101E+00    0.829E-01
DAV:  18    -0.230002983325E+03    0.95916E-02   -0.48644E-02  3200   0.583E-01    0.335E-01
DAV:  19    -0.230003851822E+03   -0.86850E-03   -0.22356E-02  3272   0.409E-01    0.180E-01
DAV:  20    -0.230005499952E+03   -0.16481E-02   -0.73257E-03  2976   0.306E-01    0.202E-01
DAV:  21    -0.230006326302E+03   -0.82635E-03   -0.47524E-03  2504   0.252E-01    0.101E-01
DAV:  22    -0.230008213685E+03   -0.18874E-02   -0.31541E-03  2968   0.155E-01    0.106E-01
DAV:  23    -0.230008733434E+03   -0.51975E-03   -0.53171E-04  2808   0.790E-02    0.474E-02
DAV:  24    -0.230008932723E+03   -0.19929E-03   -0.24485E-04  3144   0.443E-02    0.241E-02
DAV:  25    -0.230008997628E+03   -0.64906E-04   -0.97442E-05  2656   0.323E-02    0.101E-02
DAV:  26    -0.230009001066E+03   -0.34374E-05   -0.11903E-05  1872   0.101E-02
   1 F= -.23000900E+03 E0= -.22995118E+03  d E =-.115649E+00
 running on   16 total cores
 distrk:  each k-point on    8 cores,    2 groups
 distr:  one band on    4 cores,    2 groups
 using from now: INCAR     
 vasp.5.4.4.18Apr17-6-g9f103f2a35 (build Nov 27 2019 20:08:17) complex          
  
 POSCAR found type information on POSCAR  Ti
 POSCAR found :  1 types and      36 ions
 scaLAPACK will be used

 ----------------------------------------------------------------------------- 
|                                                                             |
|           W    W    AA    RRRRR   N    N  II  N    N   GGGG   !!!           |
|           W    W   A  A   R    R  NN   N  II  NN   N  G    G  !!!           |
|           W    W  A    A  R    R  N N  N  II  N N  N  G       !!!           |
|           W WW W  AAAAAA  RRRRR   N  N N  II  N  N N  G  GGG   !            |
|           WW  WW  A    A  R   R   N   NN  II  N   NN  G    G                |
|           W    W  A    A  R    R  N    N  II  N    N   GGGG   !!!           |
|                                                                             |
|      You have enabled k-point parallelism (KPAR>1).                         |
|      This developmental code was originally  written by Paul Kent at ORNL,  |
|      and carefully double checked in Vienna.                                |
|      GW as well as linear response parallelism added by Martijn Marsman     |
|      and Georg Kresse.                                                      |
|      Carefully verify results versus KPAR=1.                                |
|      Report problems to Paul Kent and Vienna.                               |
|                                                                             |
 ----------------------------------------------------------------------------- 

 LDA part: xc-table for Pade appr. of Perdew
 POSCAR found type information on POSCAR  Ti
 POSCAR found :  1 types and      36 ions
 POSCAR, INCAR and KPOINTS ok, starting setup
 FFT: planning ...
 WAVECAR not read
 WARNING: random wavefunctions but no delay for mixing, default for NELMDL
 entering main loop
       N       E                     dE             d eps       ncg     rms          rms(c)
DAV:   1     0.738181960033E+03    0.73818E+03   -0.41815E+04  2208   0.112E+03
DAV:   2    -0.191207418260E+03   -0.92939E+03   -0.89259E+03  2208   0.253E+02
DAV:   3    -0.325002004224E+03   -0.13379E+03   -0.12327E+03  3208   0.916E+01
DAV:   4    -0.334246725159E+03   -0.92447E+01   -0.85233E+01  3200   0.290E+01
DAV:   5    -0.334742227678E+03   -0.49550E+00   -0.47425E+00  3568   0.544E+00    0.824E+01
DAV:   6    -0.535937870083E+03   -0.20120E+03   -0.29279E+03  4156   0.956E+01    0.110E+02
DAV:   7    -0.292147683481E+03    0.24379E+03   -0.44823E+03  4084   0.165E+02    0.372E+01
DAV:   8    -0.280779912794E+03    0.11368E+02   -0.49841E+02  3204   0.768E+01    0.369E+01
DAV:   9    -0.276031165239E+03    0.47487E+01   -0.35450E+01  3688   0.135E+01    0.302E+01
DAV:  10    -0.278978269338E+03   -0.29471E+01   -0.39403E+00  3452   0.471E+00    0.333E+01
DAV:  11    -0.264219719591E+03    0.14759E+02   -0.36605E+01  3220   0.206E+01    0.103E+01
DAV:  12    -0.263537495547E+03    0.68222E+00   -0.24096E+00  3552   0.484E+00    0.800E+00
[...]
DAV:   6    -0.185016476672E+04   -0.12372E+04   -0.13287E+04  8120   0.193E+02    0.129E+02
DAV:   7    -0.678839496471E+03    0.11713E+04   -0.91878E+03  7680   0.143E+02    0.102E+02
DAV:   8    -0.524956642721E+03    0.15388E+03   -0.37110E+03  6600   0.175E+02    0.417E+01
DAV:   9    -0.578180646970E+03   -0.53224E+02   -0.10970E+03  7608   0.737E+01    0.510E+01
DAV:  10    -0.551456950711E+03    0.26724E+02   -0.34123E+02  7048   0.453E+01    0.431E+01
DAV:  11    -0.534704528553E+03    0.16752E+02   -0.64013E+01  6880   0.197E+01    0.362E+01
DAV:  12    -0.528407170683E+03    0.62974E+01   -0.12996E+01  6704   0.719E+00    0.315E+01
DAV:  13    -0.519300012220E+03    0.91072E+01   -0.36787E+01  6648   0.145E+01    0.216E+01
DAV:  14    -0.518851307639E+03    0.44870E+00   -0.27353E+01  6864   0.136E+01    0.204E+01
DAV:  15    -0.517101546524E+03    0.17498E+01   -0.32178E+00  6216   0.467E+00    0.176E+01
DAV:  16    -0.515747585237E+03    0.13540E+01   -0.80582E-01  6392   0.214E+00    0.157E+01
DAV:  17    -0.513841712268E+03    0.19059E+01   -0.27633E+00  6464   0.387E+00    0.128E+01
DAV:  18    -0.512660294890E+03    0.11814E+01   -0.34146E+00  6280   0.428E+00    0.106E+01
DAV:  19    -0.511260718860E+03    0.13996E+01   -0.19140E+00  6656   0.305E+00    0.711E+00
DAV:  20    -0.510661039198E+03    0.59968E+00   -0.89518E-01  6520   0.222E+00    0.500E+00
DAV:  21    -0.510253282643E+03    0.40776E+00   -0.12394E+00  6400   0.277E+00    0.284E+00
DAV:  22    -0.510313088132E+03   -0.59805E-01   -0.49515E-01  6368   0.179E+00    0.311E+00
DAV:  23    -0.510170813397E+03    0.14227E+00   -0.26729E-01  6424   0.130E+00    0.189E+00
DAV:  24    -0.510107470673E+03    0.63343E-01   -0.19539E-01  6720   0.949E-01    0.872E-01
DAV:  25    -0.510099369145E+03    0.81015E-02   -0.60614E-02  6536   0.598E-01    0.613E-01
DAV:  26    -0.510098073150E+03    0.12960E-02   -0.26480E-02  6400   0.404E-01    0.525E-01
DAV:  27    -0.510095303094E+03    0.27701E-02   -0.17847E-02  6760   0.308E-01    0.375E-01
DAV:  28    -0.510095238690E+03    0.64404E-04   -0.78126E-03  6304   0.227E-01    0.288E-01
DAV:  29    -0.510094861628E+03    0.37706E-03   -0.70554E-03  6312   0.200E-01    0.232E-01
DAV:  30    -0.510094357782E+03    0.50385E-03   -0.38855E-03  6592   0.146E-01    0.155E-01
DAV:  31    -0.510094239518E+03    0.11826E-03   -0.90090E-04  6424   0.790E-02    0.114E-01
DAV:  32    -0.510094228100E+03    0.11419E-04   -0.35249E-04  6432   0.479E-02    0.949E-02
DAV:  33    -0.510094180216E+03    0.47884E-04   -0.27986E-04  6240   0.384E-02    0.722E-02
DAV:  34    -0.510094158975E+03    0.21241E-04   -0.21087E-04  6408   0.332E-02    0.460E-02
DAV:  35    -0.510094153757E+03    0.52181E-05   -0.43965E-05  5600   0.176E-02    0.335E-02
DAV:  36    -0.510094148192E+03    0.55655E-05   -0.22262E-05  4336   0.116E-02    0.155E-02
DAV:  37    -0.510094148219E+03   -0.26994E-07   -0.15296E-05  3320   0.116E-02
   1 F= -.51009415E+03 E0= -.51001401E+03  d E =-.160278E+00
Distance=9.500
 running on   16 total cores
 distrk:  each k-point on    8 cores,    2 groups
 distr:  one band on    4 cores,    2 groups
 using from now: INCAR     
 vasp.5.4.4.18Apr17-6-g9f103f2a35 (build Nov 27 2019 20:08:17) complex          
  
 POSCAR found type information on POSCAR  Ti
 POSCAR found :  1 types and      32 ions
 scaLAPACK will be used

 ----------------------------------------------------------------------------- 
|                                                                             |
|           W    W    AA    RRRRR   N    N  II  N    N   GGGG   !!!           |
|           W    W   A  A   R    R  NN   N  II  NN   N  G    G  !!!           |
|           W    W  A    A  R    R  N N  N  II  N N  N  G       !!!           |
|           W WW W  AAAAAA  RRRRR   N  N N  II  N  N N  G  GGG   !            |
|           WW  WW  A    A  R   R   N   NN  II  N   NN  G    G                |
|           W    W  A    A  R    R  N    N  II  N    N   GGGG   !!!           |
|                                                                             |
|      You have enabled k-point parallelism (KPAR>1).                         |
|      This developmental code was originally  written by Paul Kent at ORNL,  |
|      and carefully double checked in Vienna.                                |
|      GW as well as linear response parallelism added by Martijn Marsman     |
|      and Georg Kresse.                                                      |
|      Carefully verify results versus KPAR=1.                                |
|      Report problems to Paul Kent and Vienna.                               |
|                                                                             |
 ----------------------------------------------------------------------------- 

 LDA part: xc-table for Pade appr. of Perdew
 POSCAR found type information on POSCAR  Ti
 POSCAR found :  1 types and      32 ions
 POSCAR, INCAR and KPOINTS ok, starting setup
 FFT: planning ...
 WAVECAR not read
 entering main loop
       N       E                     dE             d eps       ncg     rms          rms(c)
DAV:   1     0.596307403158E+03    0.59631E+03   -0.35902E+04  1968   0.108E+03
DAV:   2    -0.165464067792E+03   -0.76177E+03   -0.73334E+03  1968   0.241E+02
DAV:   3    -0.277095944323E+03   -0.11163E+03   -0.10523E+03  3072   0.832E+01
DAV:   4    -0.286520684079E+03   -0.94247E+01   -0.87537E+01  3096   0.264E+01
DAV:   5    -0.287113382095E+03   -0.59270E+00   -0.56364E+00  3200   0.552E+00    0.670E+01
DAV:   6    -0.419407949454E+03   -0.13229E+03   -0.22728E+03  3664   0.954E+01    0.836E+01
DAV:   7    -0.251668300897E+03    0.16774E+03   -0.26099E+03  3416   0.157E+02    0.297E+01
DAV:   8    -0.251982758322E+03   -0.31446E+00   -0.45957E+02  3020   0.653E+01    0.308E+01
DAV:   9    -0.236690016405E+03    0.15293E+02   -0.92612E+01  3034   0.287E+01    0.202E+01
DAV:  10    -0.236080378528E+03    0.60964E+00   -0.10157E+01  3248   0.700E+00    0.182E+01
DAV:  11    -0.237421972538E+03   -0.13416E+01   -0.36530E+00  3256   0.469E+00    0.201E+01
DAV:  12    -0.234094536782E+03    0.33274E+01   -0.68420E+00  3040   0.944E+00    0.142E+01
DAV:  13    -0.230688623440E+03    0.34059E+01   -0.88091E+00  2854   0.108E+01    0.662E+00
DAV:  14    -0.230332451034E+03    0.35617E+00   -0.16889E+00  3296   0.326E+00    0.475E+00
DAV:  15    -0.230225552089E+03    0.10690E+00   -0.14013E+00  2752   0.440E+00    0.432E+00
DAV:  16    -0.230032606417E+03    0.19295E+00   -0.18201E+00  3104   0.347E+00    0.169E+00
DAV:  17    -0.230022331470E+03    0.10275E-01   -0.11535E-01  3046   0.988E-01    0.989E-01
DAV:  18    -0.230006596956E+03    0.15735E-01   -0.70647E-02  3184   0.677E-01    0.309E-01
DAV:  19    -0.230006485039E+03    0.11192E-03   -0.18852E-02  3256   0.389E-01    0.195E-01
DAV:  20    -0.230006137870E+03    0.34717E-03   -0.49390E-03  3056   0.239E-01    0.104E-01
DAV:  21    -0.230006087212E+03    0.50658E-04   -0.17983E-03  2480   0.155E-01    0.682E-02
DAV:  22    -0.230007571974E+03   -0.14848E-02   -0.20560E-03  3040   0.117E-01    0.102E-01
DAV:  23    -0.230008203579E+03   -0.63160E-03   -0.10775E-03  2968   0.976E-02    0.404E-02
DAV:  24    -0.230008660230E+03   -0.45665E-03   -0.18421E-04  2488   0.468E-02    0.154E-02
DAV:  25    -0.230008886239E+03   -0.22601E-03   -0.75523E-05  2520   0.280E-02    0.199E-02
DAV:  26    -0.230008921285E+03   -0.35046E-04   -0.22272E-05  2040   0.136E-02    0.799E-03
DAV:  27    -0.230008926884E+03   -0.55994E-05   -0.45830E-06  1520   0.654E-03    0.558E-03
DAV:  28    -0.230008927789E+03   -0.90485E-06   -0.13617E-06  1392   0.370E-03
   1 F= -.23000893E+03 E0= -.22995111E+03  d E =-.115637E+00
 running on   16 total cores
 distrk:  each k-point on    8 cores,    2 groups
 distr:  one band on    4 cores,    2 groups
 using from now: INCAR     
 vasp.5.4.4.18Apr17-6-g9f103f2a35 (build Nov 27 2019 20:08:17) complex          
  
 POSCAR found type information on POSCAR  Ti
 POSCAR found :  1 types and      36 ions
 scaLAPACK will be used

 ----------------------------------------------------------------------------- 
|                                                                             |
|           W    W    AA    RRRRR   N    N  II  N    N   GGGG   !!!           |
|           W    W   A  A   R    R  NN   N  II  NN   N  G    G  !!!           |
|           W    W  A    A  R    R  N N  N  II  N N  N  G       !!!           |
|           W WW W  AAAAAA  RRRRR   N  N N  II  N  N N  G  GGG   !            |
|           WW  WW  A    A  R   R   N   NN  II  N   NN  G    G                |
|           W    W  A    A  R    R  N    N  II  N    N   GGGG   !!!           |
|                                                                             |
|      You have enabled k-point parallelism (KPAR>1).                         |
|      This developmental code was originally  written by Paul Kent at ORNL,  |
|      and carefully double checked in Vienna.                                |
|      GW as well as linear response parallelism added by Martijn Marsman     |
|      and Georg Kresse.                                                      |
|      Carefully verify results versus KPAR=1.                                |
|      Report problems to Paul Kent and Vienna.                               |
|                                                                             |
 ----------------------------------------------------------------------------- 

 LDA part: xc-table for Pade appr. of Perdew
 POSCAR found type information on POSCAR  Ti
 POSCAR found :  1 types and      36 ions
 POSCAR, INCAR and KPOINTS ok, starting setup
 FFT: planning ...
 WAVECAR not read
 WARNING: random wavefunctions but no delay for mixing, default for NELMDL
 entering main loop
       N       E                     dE             d eps       ncg     rms          rms(c)
DAV:   1     0.748856878433E+03    0.74886E+03   -0.41792E+04  2208   0.111E+03
DAV:   2    -0.191402119703E+03   -0.94026E+03   -0.90242E+03  2212   0.251E+02
DAV:   3    -0.325105921770E+03   -0.13370E+03   -0.12339E+03  3248   0.908E+01
DAV:   4    -0.334254566632E+03   -0.91486E+01   -0.84258E+01  3208   0.289E+01
DAV:   5    -0.334747730320E+03   -0.49316E+00   -0.47154E+00  3600   0.546E+00    0.824E+01
DAV:   6    -0.527874312586E+03   -0.19313E+03   -0.28236E+03  4160   0.944E+01    0.109E+02
DAV:   7    -0.297055203136E+03    0.23082E+03   -0.45767E+03  4064   0.167E+02    0.379E+01
DAV:   8    -0.281492159599E+03    0.15563E+02   -0.50259E+02  3172   0.772E+01    0.372E+01
DAV:   9    -0.276959669549E+03    0.45325E+01   -0.34271E+01  3680   0.135E+01    0.309E+01
DAV:  10    -0.279196853141E+03   -0.22372E+01   -0.29201E+00  3448   0.360E+00    0.332E+01
DAV:  11    -0.265056996107E+03    0.14140E+02   -0.34868E+01  3332   0.200E+01    0.124E+01
DAV:  12    -0.263434247891E+03    0.16227E+01   -0.48945E+00  3488   0.692E+00    0.736E+00
DAV:  13    -0.263097352402E+03    0.33690E+00   -0.39346E-01  3280   0.208E+00    0.611E+00
DAV:  14    -0.262614271626E+03    0.48308E+00   -0.12279E+00  2920   0.409E+00    0.361E+00
DAV:  15    -0.262462261088E+03    0.15201E+00   -0.12050E+00  3344   0.355E+00    0.203E+00
DAV:  16    -0.262484275015E+03   -0.22014E-01   -0.11297E-01  3208   0.924E-01    0.185E+00
DAV:  17    -0.262454604519E+03    0.29670E-01   -0.25738E-01  3400   0.130E+00    0.680E-01
DAV:  18    -0.262451160192E+03    0.34443E-02   -0.26911E-02  3088   0.586E-01    0.213E-01
DAV:  19    -0.262458522505E+03   -0.73623E-02   -0.53766E-02  3128   0.790E-01    0.636E-01
DAV:  20    -0.262456152558E+03    0.23699E-02   -0.19485E-02  3284   0.419E-01    0.305E-01
DAV:  21    -0.262456554174E+03   -0.40162E-03   -0.19917E-03  2720   0.171E-01    0.162E-01
DAV:  22    -0.262458093677E+03   -0.15395E-02   -0.22029E-03  2736   0.166E-01    0.632E-02
DAV:  23    -0.262458455612E+03   -0.36193E-03   -0.33396E-04  3088   0.622E-02    0.734E-02
DAV:  24    -0.262458647944E+03   -0.19233E-03   -0.35885E-04  2528   0.697E-02    0.235E-02
DAV:  25    -0.262458690468E+03   -0.42524E-04   -0.25255E-05  2464   0.168E-02    0.106E-02
DAV:  26    -0.262458695774E+03   -0.53062E-05   -0.44075E-06  1712   0.796E-03    0.762E-03
DAV:  27    -0.262458700424E+03   -0.46505E-05   -0.12728E-05  1844   0.932E-03
   1 F= -.26245870E+03 E0= -.26240625E+03  d E =-.104902E+00
 running on   16 total cores
 distrk:  each k-point on    8 cores,    2 groups
 distr:  one band on    4 cores,    2 groups
 using from now: INCAR     
 vasp.5.4.4.18Apr17-6-g9f103f2a35 (build Nov 27 2019 20:08:17) complex          
  
 POSCAR found type information on POSCAR  Ti
 POSCAR found :  1 types and      68 ions
 scaLAPACK will be used

 ----------------------------------------------------------------------------- 
|                                                                             |
|           W    W    AA    RRRRR   N    N  II  N    N   GGGG   !!!           |
|           W    W   A  A   R    R  NN   N  II  NN   N  G    G  !!!           |
|           W    W  A    A  R    R  N N  N  II  N N  N  G       !!!           |
|           W WW W  AAAAAA  RRRRR   N  N N  II  N  N N  G  GGG   !            |
|           WW  WW  A    A  R   R   N   NN  II  N   NN  G    G                |
|           W    W  A    A  R    R  N    N  II  N    N   GGGG   !!!           |
|                                                                             |
|      You have enabled k-point parallelism (KPAR>1).                         |
|      This developmental code was originally  written by Paul Kent at ORNL,  |
|      and carefully double checked in Vienna.                                |
|      GW as well as linear response parallelism added by Martijn Marsman     |
|      and Georg Kresse.                                                      |
|      Carefully verify results versus KPAR=1.                                |
|      Report problems to Paul Kent and Vienna.                               |
|                                                                             |
 ----------------------------------------------------------------------------- 

 LDA part: xc-table for Pade appr. of Perdew
 POSCAR found type information on POSCAR  Ti
 POSCAR found :  1 types and      68 ions
 POSCAR, INCAR and KPOINTS ok, starting setup
 FFT: planning ...
 WAVECAR not read
 WARNING: random wavefunctions but no delay for mixing, default for NELMDL
 entering main loop
       N       E                     dE             d eps       ncg     rms          rms(c)
DAV:   1     0.115252502798E+04    0.11525E+04   -0.78159E+04  4128   0.123E+03
DAV:   2    -0.364994537064E+03   -0.15175E+04   -0.14718E+04  4128   0.273E+02
DAV:   3    -0.595406428751E+03   -0.23041E+03   -0.21395E+03  6136   0.963E+01
DAV:   4    -0.613640048482E+03   -0.18234E+02   -0.17238E+02  6104   0.285E+01
DAV:   5    -0.614364488738E+03   -0.72444E+00   -0.70094E+00  5976   0.444E+00    0.107E+02
DAV:   6    -0.189124059056E+04   -0.12769E+04   -0.13771E+04  8104   0.194E+02    0.131E+02
DAV:   7    -0.680914689262E+03    0.12103E+04   -0.92530E+03  7720   0.143E+02    0.103E+02
DAV:   8    -0.524150455918E+03    0.15676E+03   -0.37765E+03  6616   0.177E+02    0.412E+01
DAV:   9    -0.589126192670E+03   -0.64976E+02   -0.11446E+03  7632   0.753E+01    0.530E+01
DAV:  10    -0.553662535591E+03    0.35464E+02   -0.38854E+02  7072   0.485E+01    0.437E+01
DAV:  11    -0.532937686775E+03    0.20725E+02   -0.87181E+01  6872   0.224E+01    0.353E+01
DAV:  12    -0.525713843976E+03    0.72238E+01   -0.18814E+01  6784   0.848E+00    0.295E+01
DAV:  13    -0.518169924907E+03    0.75439E+01   -0.39370E+01  6624   0.150E+01    0.207E+01
DAV:  14    -0.517804170617E+03    0.36575E+00   -0.25955E+01  6888   0.134E+01    0.195E+01
DAV:  15    -0.516313591024E+03    0.14906E+01   -0.29221E+00  6240   0.446E+00    0.170E+01
DAV:  16    -0.515071774190E+03    0.12418E+01   -0.65726E-01  6448   0.189E+00    0.152E+01
DAV:  17    -0.513531676842E+03    0.15401E+01   -0.28072E+00  6448   0.383E+00    0.129E+01
DAV:  18    -0.512312042457E+03    0.12196E+01   -0.35887E+00  6280   0.433E+00    0.106E+01
DAV:  19    -0.510885814383E+03    0.14262E+01   -0.18988E+00  6632   0.306E+00    0.698E+00
DAV:  20    -0.510273677360E+03    0.61214E+00   -0.99656E-01  6504   0.237E+00    0.475E+00
DAV:  21    -0.509968143157E+03    0.30553E+00   -0.13004E+00  6512   0.279E+00    0.301E+00
DAV:  22    -0.509976011051E+03   -0.78679E-02   -0.43493E-01  6520   0.168E+00    0.293E+00
DAV:  23    -0.509878530465E+03    0.97481E-01   -0.20483E-01  6528   0.111E+00    0.204E+00
DAV:  24    -0.509812634025E+03    0.65896E-01   -0.16074E-01  6640   0.866E-01    0.109E+00
DAV:  25    -0.509799414453E+03    0.13220E-01   -0.66084E-02  6488   0.597E-01    0.796E-01
DAV:  26    -0.509791163095E+03    0.82514E-02   -0.35219E-02  6512   0.410E-01    0.500E-01
DAV:  27    -0.509789624429E+03    0.15387E-02   -0.13236E-02  6632   0.245E-01    0.417E-01
DAV:  28    -0.509789827090E+03   -0.20266E-03   -0.84292E-03  6216   0.245E-01    0.334E-01
DAV:  29    -0.509789219826E+03    0.60726E-03   -0.87450E-03  6296   0.218E-01    0.248E-01
DAV:  30    -0.509788696605E+03    0.52322E-03   -0.37166E-03  6456   0.143E-01    0.164E-01
DAV:  31    -0.509788602960E+03    0.93645E-04   -0.95849E-04  6448   0.768E-02    0.122E-01
DAV:  32    -0.509788598606E+03    0.43543E-05   -0.45742E-04  6328   0.556E-02    0.981E-02
DAV:  33    -0.509788563608E+03    0.34997E-04   -0.22990E-04  6216   0.354E-02    0.770E-02
DAV:  34    -0.509788531037E+03    0.32571E-04   -0.26913E-04  6344   0.410E-02    0.491E-02
DAV:  35    -0.509788532202E+03   -0.11645E-05   -0.69411E-05  6040   0.209E-02    0.421E-02
DAV:  36    -0.509788522176E+03    0.10026E-04   -0.31743E-05  4944   0.141E-02    0.230E-02
DAV:  37    -0.509788522581E+03   -0.40545E-06   -0.33514E-05  4752   0.154E-02
   1 F= -.50978852E+03 E0= -.50970854E+03  d E =-.159960E+00

DISTANCE=0.500
E_alpha= -230.009636  E_beta= -262.459463  E_total= -505.832853 
W_seq=-13.363754

DISTANCE=1.000
E_alpha= -230.009100  E_beta= -262.458937  E_total= -507.534002 
W_seq=-15.065965

DISTANCE=1.500
E_alpha= -230.009012  E_beta= -262.458832  E_total= -508.854820 
W_seq=-16.386976

DISTANCE=2.000
E_alpha= -230.008951  E_beta= -262.458796  E_total= -509.855918 
W_seq=-17.388171

DISTANCE=2.500
E_alpha= -230.009113  E_beta= -262.458957  E_total= -510.589522 
W_seq=-18.121452

DISTANCE=3.000
E_alpha= -230.009001  E_beta= -262.458898  E_total= -511.101773 
W_seq=-18.633874

DISTANCE=3.500
E_alpha= -230.008940  E_beta= -262.458779  E_total= -511.434047 
W_seq=-18.966328

DISTANCE=4.000
E_alpha= -230.008941  E_beta= -262.458841  E_total= -511.623318 
W_seq=-19.155536

DISTANCE=4.500
E_alpha= -230.009076  E_beta= -262.458934  E_total= -511.699370 
W_seq=-19.231360

DISTANCE=5.000
E_alpha= -230.008957  E_beta= -262.458870  E_total= -511.688293 
W_seq=-19.220466

DISTANCE=5.500
E_alpha= -230.008891  E_beta= -262.458674  E_total= -511.611113 
W_seq=-19.143548

DISTANCE=6.000
E_alpha= -230.008947  E_beta= -262.458799  E_total= -511.484074 
W_seq=-19.016328

DISTANCE=6.500
E_alpha= -230.009107  E_beta= -262.458919  E_total= -511.317594 
W_seq=-18.849568

DISTANCE=7.000
E_alpha= -230.008936  E_beta= -262.458844  E_total= -511.119090 
W_seq=-18.651310

DISTANCE=7.500
E_alpha= -230.008784  E_beta= -262.458806  E_total= -510.894360 
W_seq=-18.426770

DISTANCE=8.000
E_alpha= -230.008956  E_beta= -262.458767  E_total= -510.647799 
W_seq=-18.180076

DISTANCE=8.500
E_alpha= -230.008912  E_beta= -262.458798  E_total= -510.380624 
W_seq=-17.912914

DISTANCE=9.000
E_alpha= -230.008918  E_beta= -262.458743  E_total= -510.094148 
W_seq=-17.626487

DISTANCE=9.500
E_alpha= -230.008928  E_beta= -262.458700  E_total= -509.788523 
W_seq=-17.320895

