Distance=1.550
 running on   24 total cores
 distrk:  each k-point on    8 cores,    3 groups
 distr:  one band on    8 cores,    1 groups
 using from now: INCAR     
 vasp.5.4.4.18Apr17-6-g9f103f2a35 (build Jun 27 2018 15:25:23) complex          
  
 POSCAR found type information on POSCAR  Ti
 POSCAR found :  1 types and      36 ions
 scaLAPACK will be used

 ----------------------------------------------------------------------------- 
|                                                                             |
|           W    W    AA    RRRRR   N    N  II  N    N   GGGG   !!!           |
|           W    W   A  A   R    R  NN   N  II  NN   N  G    G  !!!           |
|           W    W  A    A  R    R  N N  N  II  N N  N  G       !!!           |
|           W WW W  AAAAAA  RRRRR   N  N N  II  N  N N  G  GGG   !            |
|           WW  WW  A    A  R   R   N   NN  II  N   NN  G    G                |
|           W    W  A    A  R    R  N    N  II  N    N   GGGG   !!!           |
|                                                                             |
|      You have enabled k-point parallelism (KPAR>1).                         |
|      This developmental code was originally  written by Paul Kent at ORNL,  |
|      and carefully double checked in Vienna.                                |
|      GW as well as linear response parallelism added by Martijn Marsman     |
|      and Georg Kresse.                                                      |
|      Carefully verify results versus KPAR=1.                                |
|      Report problems to Paul Kent and Vienna.                               |
|                                                                             |
 ----------------------------------------------------------------------------- 

 LDA part: xc-table for Pade appr. of Perdew
 POSCAR found type information on POSCAR  Ti
 POSCAR found :  1 types and      36 ions
 POSCAR, INCAR and KPOINTS ok, starting setup
 FFT: planning ...
 WAVECAR not read
 entering main loop
       N       E                     dE             d eps       ncg     rms          rms(c)
DAV:   1     0.650228950072E+03    0.65023E+03   -0.40784E+04  2184   0.112E+03
DAV:   2    -0.184468383632E+03   -0.83470E+03   -0.80728E+03  2184   0.247E+02
DAV:   3    -0.308751404584E+03   -0.12428E+03   -0.11760E+03  3480   0.845E+01
DAV:   4    -0.319727896818E+03   -0.10976E+02   -0.10390E+02  3440   0.264E+01
DAV:   5    -0.320450049613E+03   -0.72215E+00   -0.68981E+00  3544   0.565E+00    0.692E+01
DAV:   6    -0.451208719691E+03   -0.13076E+03   -0.21617E+03  3876   0.989E+01    0.707E+01
DAV:   7    -0.276565267561E+03    0.17464E+03   -0.19113E+03  4060   0.101E+02    0.389E+01
DAV:   8    -0.266340610114E+03    0.10225E+02   -0.59027E+02  3682   0.676E+01    0.219E+01
DAV:   9    -0.269152044433E+03   -0.28114E+01   -0.52035E+01  3664   0.167E+01    0.219E+01
DAV:  10    -0.272916198987E+03   -0.37642E+01   -0.49156E+00  3520   0.558E+00    0.259E+01
DAV:  11    -0.261540575444E+03    0.11376E+02   -0.24520E+01  3200   0.180E+01    0.844E+00
DAV:  12    -0.260803449738E+03    0.73713E+00   -0.13031E+01  3752   0.103E+01    0.567E+00
DAV:  13    -0.260412533181E+03    0.39092E+00   -0.25670E+00  3536   0.469E+00    0.403E+00
DAV:  14    -0.260581874047E+03   -0.16934E+00   -0.61926E-01  3496   0.212E+00    0.390E+00
DAV:  15    -0.260434815460E+03    0.14706E+00   -0.14755E-01  3368   0.874E-01    0.247E+00
DAV:  16    -0.260369217571E+03    0.65598E-01   -0.21836E-01  3536   0.774E-01    0.106E+00
DAV:  17    -0.260382886759E+03   -0.13669E-01   -0.27779E-02  3224   0.591E-01    0.104E+00
DAV:  18    -0.260371313642E+03    0.11573E-01   -0.45932E-02  3688   0.555E-01    0.228E-01
DAV:  19    -0.260372780984E+03   -0.14673E-02   -0.15101E-02  3800   0.323E-01    0.214E-01
DAV:  20    -0.260374733777E+03   -0.19528E-02   -0.19678E-03  2888   0.133E-01    0.271E-01
DAV:  21    -0.260374646940E+03    0.86837E-04   -0.38537E-04  2632   0.525E-02    0.194E-01
DAV:  22    -0.260374091669E+03    0.55527E-03   -0.12731E-03  3560   0.903E-02    0.779E-02
DAV:  23    -0.260374040498E+03    0.51171E-04   -0.28879E-04  3400   0.505E-02    0.206E-02
DAV:  24    -0.260374037997E+03    0.25012E-05   -0.12888E-05  2016   0.107E-02
   1 F= -.26037404E+03 E0= -.26032279E+03  d E =-.102495E+00
 running on   24 total cores
 distrk:  each k-point on    8 cores,    3 groups
 distr:  one band on    8 cores,    1 groups
 using from now: INCAR     
 vasp.5.4.4.18Apr17-6-g9f103f2a35 (build Jun 27 2018 15:25:23) complex          
  
 POSCAR found type information on POSCAR  Ti
 POSCAR found :  1 types and      36 ions
 scaLAPACK will be used

 ----------------------------------------------------------------------------- 
|                                                                             |
|           W    W    AA    RRRRR   N    N  II  N    N   GGGG   !!!           |
|           W    W   A  A   R    R  NN   N  II  NN   N  G    G  !!!           |
|           W    W  A    A  R    R  N N  N  II  N N  N  G       !!!           |
|           W WW W  AAAAAA  RRRRR   N  N N  II  N  N N  G  GGG   !            |
|           WW  WW  A    A  R   R   N   NN  II  N   NN  G    G                |
|           W    W  A    A  R    R  N    N  II  N    N   GGGG   !!!           |
|                                                                             |
|      You have enabled k-point parallelism (KPAR>1).                         |
|      This developmental code was originally  written by Paul Kent at ORNL,  |
|      and carefully double checked in Vienna.                                |
|      GW as well as linear response parallelism added by Martijn Marsman     |
|      and Georg Kresse.                                                      |
|      Carefully verify results versus KPAR=1.                                |
|      Report problems to Paul Kent and Vienna.                               |
|                                                                             |
 ----------------------------------------------------------------------------- 

 LDA part: xc-table for Pade appr. of Perdew
 POSCAR found type information on POSCAR  Ti
 POSCAR found :  1 types and      36 ions
 POSCAR, INCAR and KPOINTS ok, starting setup
 FFT: planning ...
 WAVECAR not read
 WARNING: random wavefunctions but no delay for mixing, default for NELMDL
 entering main loop
       N       E                     dE             d eps       ncg     rms          rms(c)
DAV:   1     0.704985792504E+03    0.70499E+03   -0.41302E+04  2184   0.113E+03
DAV:   2    -0.184684891946E+03   -0.88967E+03   -0.85583E+03  2184   0.250E+02
DAV:   3    -0.320362601798E+03   -0.13568E+03   -0.12766E+03  3304   0.903E+01
DAV:   4    -0.330646512120E+03   -0.10284E+02   -0.96083E+01  3280   0.285E+01
DAV:   5    -0.331138373521E+03   -0.49186E+00   -0.47922E+00  3392   0.558E+00    0.782E+01
DAV:   6    -0.517303280609E+03   -0.18616E+03   -0.31584E+03  4096   0.103E+02    0.101E+02
DAV:   7    -0.274331646054E+03    0.24297E+03   -0.36668E+03  3812   0.173E+02    0.317E+01
DAV:   8    -0.288870023206E+03   -0.14538E+02   -0.61002E+02  3339   0.770E+01    0.412E+01
DAV:   9    -0.266473296232E+03    0.22397E+02   -0.14594E+02  3322   0.410E+01    0.276E+01
DAV:  10    -0.260499035529E+03    0.59743E+01   -0.19418E+01  3592   0.104E+01    0.187E+01
DAV:  11    -0.260590894623E+03   -0.91859E-01   -0.41979E+00  3280   0.530E+00    0.183E+01
DAV:  12    -0.258448428388E+03    0.21425E+01   -0.15492E+01  3320   0.124E+01    0.122E+01
DAV:  13    -0.256169884066E+03    0.22785E+01   -0.15498E+01  3608   0.965E+00    0.500E+00
DAV:  14    -0.256025841212E+03    0.14404E+00   -0.14891E+00  3464   0.335E+00    0.348E+00
DAV:  15    -0.256395134022E+03   -0.36929E+00   -0.26587E+00  3504   0.406E+00    0.617E+00
DAV:  16    -0.255832315082E+03    0.56282E+00   -0.19051E+00  3304   0.371E+00    0.212E+00
DAV:  17    -0.255803442426E+03    0.28873E-01   -0.72899E-01  3696   0.223E+00    0.146E+00
DAV:  18    -0.255791221918E+03    0.12221E-01   -0.31697E-01  3464   0.172E+00    0.101E+00
DAV:  19    -0.255785289528E+03    0.59324E-02   -0.80866E-02  3520   0.947E-01    0.477E-01
DAV:  20    -0.255789562586E+03   -0.42731E-02   -0.35570E-02  3445   0.461E-01    0.302E-01
DAV:  21    -0.255792453530E+03   -0.28909E-02   -0.55751E-03  3056   0.225E-01    0.258E-01
DAV:  22    -0.255795543670E+03   -0.30901E-02   -0.11190E-02  3410   0.270E-01    0.167E-01
DAV:  23    -0.255796332479E+03   -0.78881E-03   -0.20286E-03  3144   0.158E-01    0.552E-02
DAV:  24    -0.255796736613E+03   -0.40413E-03   -0.54002E-04  3253   0.690E-02    0.841E-02
DAV:  25    -0.255796669068E+03    0.67545E-04   -0.37413E-04  3296   0.595E-02    0.200E-02
DAV:  26    -0.255796668353E+03    0.71499E-06   -0.35415E-05  2794   0.149E-02
   1 F= -.25579667E+03 E0= -.25572788E+03  d E =-.137580E+00
 running on   24 total cores
 distrk:  each k-point on    8 cores,    3 groups
 distr:  one band on    8 cores,    1 groups
 using from now: INCAR     
 vasp.5.4.4.18Apr17-6-g9f103f2a35 (build Jun 27 2018 15:25:23) complex          
  
 POSCAR found type information on POSCAR  Ti
 POSCAR found :  1 types and      72 ions
 scaLAPACK will be used

 ----------------------------------------------------------------------------- 
|                                                                             |
|           W    W    AA    RRRRR   N    N  II  N    N   GGGG   !!!           |
|           W    W   A  A   R    R  NN   N  II  NN   N  G    G  !!!           |
|           W    W  A    A  R    R  N N  N  II  N N  N  G       !!!           |
|           W WW W  AAAAAA  RRRRR   N  N N  II  N  N N  G  GGG   !            |
|           WW  WW  A    A  R   R   N   NN  II  N   NN  G    G                |
|           W    W  A    A  R    R  N    N  II  N    N   GGGG   !!!           |
|                                                                             |
|      You have enabled k-point parallelism (KPAR>1).                         |
|      This developmental code was originally  written by Paul Kent at ORNL,  |
|      and carefully double checked in Vienna.                                |
|      GW as well as linear response parallelism added by Martijn Marsman     |
|      and Georg Kresse.                                                      |
|      Carefully verify results versus KPAR=1.                                |
|      Report problems to Paul Kent and Vienna.                               |
|                                                                             |
 ----------------------------------------------------------------------------- 

 LDA part: xc-table for Pade appr. of Perdew
 POSCAR found type information on POSCAR  Ti
 POSCAR found :  1 types and      72 ions
 POSCAR, INCAR and KPOINTS ok, starting setup
 FFT: planning ...
 WAVECAR not read
 WARNING: random wavefunctions but no delay for mixing, default for NELMDL
 entering main loop
       N       E                     dE             d eps       ncg     rms          rms(c)
DAV:   1     0.127002212862E+04    0.12700E+04   -0.82943E+04  4344   0.125E+03
DAV:   2    -0.365934280406E+03   -0.16360E+04   -0.15884E+04  4344   0.279E+02
DAV:   3    -0.604687280863E+03   -0.23875E+03   -0.22106E+03  6248   0.983E+01
DAV:   4    -0.624500620542E+03   -0.19813E+02   -0.18555E+02  6392   0.291E+01
DAV:   5    -0.625335916768E+03   -0.83530E+00   -0.80917E+00  6280   0.494E+00    0.108E+02
DAV:   6    -0.903400888550E+03   -0.27806E+03   -0.31861E+03  8288   0.114E+02    0.105E+02
DAV:   7    -0.775519766382E+03    0.12788E+03   -0.75384E+03  7972   0.150E+02    0.791E+01
DAV:   8    -0.578409581308E+03    0.19711E+03   -0.19840E+03  7136   0.121E+02    0.617E+01
DAV:   9    -0.552165515838E+03    0.26244E+02   -0.92533E+02  7440   0.772E+01    0.399E+01
DAV:  10    -0.549185030048E+03    0.29805E+01   -0.15511E+02  6992   0.252E+01    0.311E+01
DAV:  11    -0.545619707810E+03    0.35653E+01   -0.19321E+01  6656   0.112E+01    0.254E+01
DAV:  12    -0.545817215902E+03   -0.19751E+00   -0.13765E+00  6664   0.217E+00    0.257E+01
DAV:  13    -0.545395498067E+03    0.42172E+00   -0.20642E+00  6696   0.316E+00    0.248E+01
DAV:  14    -0.545365319093E+03    0.30179E-01   -0.44754E-01  6816   0.157E+00    0.247E+01
DAV:  15    -0.545258828898E+03    0.10649E+00   -0.74730E-01  6984   0.207E+00    0.245E+01
DAV:  16    -0.544781463802E+03    0.47737E+00   -0.12650E+00  6608   0.280E+00    0.239E+01
DAV:  17    -0.544862263018E+03   -0.80799E-01   -0.15370E+01  6560   0.102E+01    0.243E+01
DAV:  18    -0.545435794982E+03   -0.57353E+00   -0.52626E+00  6784   0.554E+00    0.243E+01
DAV:  19    -0.545191009222E+03    0.24479E+00   -0.29043E+00  6192   0.432E+00    0.236E+01
DAV:  20    -0.543439802951E+03    0.17512E+01   -0.69194E-01  7016   0.197E+00    0.209E+01
DAV:  21    -0.542653071448E+03    0.78673E+00   -0.31387E-01  6872   0.118E+00    0.193E+01
DAV:  22    -0.541579171016E+03    0.10739E+01   -0.38721E-01  6944   0.130E+00    0.169E+01
DAV:  23    -0.540768030919E+03    0.81114E+00   -0.28464E-01  7064   0.107E+00    0.151E+01
DAV:  24    -0.539676593097E+03    0.10914E+01   -0.63136E-01  6968   0.169E+00    0.122E+01
DAV:  25    -0.538342605208E+03    0.13340E+01   -0.27523E+00  6904   0.352E+00    0.601E+00
DAV:  26    -0.538088363359E+03    0.25424E+00   -0.44994E+00  6984   0.445E+00    0.339E+00
DAV:  27    -0.538195947131E+03   -0.10758E+00   -0.52869E-01  6296   0.164E+00    0.411E+00
DAV:  28    -0.538265303728E+03   -0.69357E-01   -0.88829E-02  6664   0.582E-01    0.474E+00
DAV:  29    -0.538170441775E+03    0.94862E-01   -0.46118E-02  6608   0.603E-01    0.400E+00
DAV:  30    -0.538525183264E+03   -0.35474E+00   -0.48331E-01  6984   0.190E+00    0.620E+00
DAV:  31    -0.538484487823E+03    0.40695E-01   -0.12847E-01  6592   0.833E-01    0.613E+00
DAV:  32    -0.538169588340E+03    0.31490E+00   -0.33894E-01  6744   0.148E+00    0.412E+00
DAV:  33    -0.538139394902E+03    0.30193E-01   -0.40183E-02  6456   0.461E-01    0.378E+00
DAV:  34    -0.538118460043E+03    0.20935E-01   -0.86776E-03  6728   0.203E-01    0.352E+00
DAV:  35    -0.538014405089E+03    0.10405E+00   -0.12554E-01  6816   0.819E-01    0.219E+00
DAV:  36    -0.537965870657E+03    0.48534E-01   -0.11083E-01  7024   0.721E-01    0.890E-01
DAV:  37    -0.537961522157E+03    0.43485E-02   -0.16003E-02  6544   0.273E-01    0.545E-01
DAV:  38    -0.537961447341E+03    0.74816E-04   -0.82313E-04  6416   0.604E-02    0.532E-01
DAV:  39    -0.537960889474E+03    0.55787E-03   -0.56627E-04  6840   0.594E-02    0.492E-01
DAV:  40    -0.537959576720E+03    0.13128E-02   -0.13725E-03  6720   0.792E-02    0.344E-01
DAV:  41    -0.537958205343E+03    0.13714E-02   -0.40646E-03  7016   0.141E-01    0.887E-02
DAV:  42    -0.537958183761E+03    0.21582E-04   -0.66745E-04  6392   0.591E-02    0.227E-02
DAV:  43    -0.537958185797E+03   -0.20359E-05   -0.27847E-05  4696   0.125E-02
   1 F= -.53795819E+03 E0= -.53787981E+03  d E =-.156752E+00
Distance=1.600
 running on   24 total cores
 distrk:  each k-point on    8 cores,    3 groups
 distr:  one band on    8 cores,    1 groups
 using from now: INCAR     
 vasp.5.4.4.18Apr17-6-g9f103f2a35 (build Jun 27 2018 15:25:23) complex          
  
 POSCAR found type information on POSCAR  Ti
 POSCAR found :  1 types and      36 ions
 scaLAPACK will be used

 ----------------------------------------------------------------------------- 
|                                                                             |
|           W    W    AA    RRRRR   N    N  II  N    N   GGGG   !!!           |
|           W    W   A  A   R    R  NN   N  II  NN   N  G    G  !!!           |
|           W    W  A    A  R    R  N N  N  II  N N  N  G       !!!           |
|           W WW W  AAAAAA  RRRRR   N  N N  II  N  N N  G  GGG   !            |
|           WW  WW  A    A  R   R   N   NN  II  N   NN  G    G                |
|           W    W  A    A  R    R  N    N  II  N    N   GGGG   !!!           |
|                                                                             |
|      You have enabled k-point parallelism (KPAR>1).                         |
|      This developmental code was originally  written by Paul Kent at ORNL,  |
|      and carefully double checked in Vienna.                                |
|      GW as well as linear response parallelism added by Martijn Marsman     |
|      and Georg Kresse.                                                      |
|      Carefully verify results versus KPAR=1.                                |
|      Report problems to Paul Kent and Vienna.                               |
|                                                                             |
 ----------------------------------------------------------------------------- 

 LDA part: xc-table for Pade appr. of Perdew
 POSCAR found type information on POSCAR  Ti
 POSCAR found :  1 types and      36 ions
 POSCAR, INCAR and KPOINTS ok, starting setup
 FFT: planning ...
 WAVECAR not read
 entering main loop
       N       E                     dE             d eps       ncg     rms          rms(c)
DAV:   1     0.650512437016E+03    0.65051E+03   -0.40642E+04  2184   0.112E+03
DAV:   2    -0.183950614963E+03   -0.83446E+03   -0.80692E+03  2184   0.247E+02
DAV:   3    -0.308780892386E+03   -0.12483E+03   -0.11809E+03  3448   0.846E+01
DAV:   4    -0.319732082672E+03   -0.10951E+02   -0.10421E+02  3488   0.266E+01
DAV:   5    -0.320459155780E+03   -0.72707E+00   -0.69163E+00  3600   0.551E+00    0.693E+01
DAV:   6    -0.451624898765E+03   -0.13117E+03   -0.21669E+03  3844   0.989E+01    0.706E+01
DAV:   7    -0.276682892684E+03    0.17494E+03   -0.18995E+03  4084   0.102E+02    0.390E+01
DAV:   8    -0.266078831668E+03    0.10604E+02   -0.59404E+02  3668   0.677E+01    0.219E+01
DAV:   9    -0.269246630639E+03   -0.31678E+01   -0.53962E+01  3672   0.168E+01    0.220E+01
DAV:  10    -0.272992014585E+03   -0.37454E+01   -0.50096E+00  3496   0.560E+00    0.260E+01
DAV:  11    -0.261677024457E+03    0.11315E+02   -0.23172E+01  3168   0.175E+01    0.887E+00
DAV:  12    -0.260833013839E+03    0.84401E+00   -0.13863E+01  3760   0.107E+01    0.582E+00
DAV:  13    -0.260420638816E+03    0.41238E+00   -0.27646E+00  3536   0.485E+00    0.419E+00
DAV:  14    -0.260567511307E+03   -0.14687E+00   -0.61447E-01  3496   0.212E+00    0.386E+00
DAV:  15    -0.260436937092E+03    0.13057E+00   -0.12292E-01  3280   0.816E-01    0.252E+00
DAV:  16    -0.260373826911E+03    0.63110E-01   -0.18373E-01  3488   0.685E-01    0.127E+00
DAV:  17    -0.260386426544E+03   -0.12600E-01   -0.22008E-02  3216   0.534E-01    0.115E+00
DAV:  18    -0.260370434360E+03    0.15992E-01   -0.74916E-02  3696   0.706E-01    0.162E-01
DAV:  19    -0.260372672086E+03   -0.22377E-02   -0.14702E-02  3517   0.353E-01    0.274E-01
DAV:  20    -0.260374115339E+03   -0.14433E-02   -0.10262E-03  2840   0.934E-02    0.243E-01
DAV:  21    -0.260374287101E+03   -0.17176E-03   -0.43833E-04  3034   0.580E-02    0.207E-01
DAV:  22    -0.260373721984E+03    0.56512E-03   -0.21391E-03  3680   0.121E-01    0.559E-02
DAV:  23    -0.260373714021E+03    0.79635E-05   -0.18626E-04  3072   0.448E-02    0.198E-02
DAV:  24    -0.260373712136E+03    0.18845E-05   -0.12127E-05  1984   0.105E-02
   1 F= -.26037371E+03 E0= -.26032246E+03  d E =-.102501E+00
 running on   24 total cores
 distrk:  each k-point on    8 cores,    3 groups
 distr:  one band on    8 cores,    1 groups
 using from now: INCAR     
 vasp.5.4.4.18Apr17-6-g9f103f2a35 (build Jun 27 2018 15:25:23) complex          
  
 POSCAR found type information on POSCAR  Ti
 POSCAR found :  1 types and      36 ions
 scaLAPACK will be used

 ----------------------------------------------------------------------------- 
|                                                                             |
|           W    W    AA    RRRRR   N    N  II  N    N   GGGG   !!!           |
|           W    W   A  A   R    R  NN   N  II  NN   N  G    G  !!!           |
|           W    W  A    A  R    R  N N  N  II  N N  N  G       !!!           |
|           W WW W  AAAAAA  RRRRR   N  N N  II  N  N N  G  GGG   !            |
|           WW  WW  A    A  R   R   N   NN  II  N   NN  G    G                |
|           W    W  A    A  R    R  N    N  II  N    N   GGGG   !!!           |
|                                                                             |
|      You have enabled k-point parallelism (KPAR>1).                         |
|      This developmental code was originally  written by Paul Kent at ORNL,  |
|      and carefully double checked in Vienna.                                |
|      GW as well as linear response parallelism added by Martijn Marsman     |
|      and Georg Kresse.                                                      |
|      Carefully verify results versus KPAR=1.                                |
|      Report problems to Paul Kent and Vienna.                               |
|                                                                             |
 ----------------------------------------------------------------------------- 

 LDA part: xc-table for Pade appr. of Perdew
 POSCAR found type information on POSCAR  Ti
 POSCAR found :  1 types and      36 ions
 POSCAR, INCAR and KPOINTS ok, starting setup
 FFT: planning ...
 WAVECAR not read
 WARNING: random wavefunctions but no delay for mixing, default for NELMDL
 entering main loop
       N       E                     dE             d eps       ncg     rms          rms(c)
DAV:   1     0.704424978037E+03    0.70442E+03   -0.41158E+04  2184   0.112E+03
DAV:   2    -0.184805707626E+03   -0.88923E+03   -0.85476E+03  2184   0.249E+02
DAV:   3    -0.320407189211E+03   -0.13560E+03   -0.12759E+03  3304   0.906E+01
DAV:   4    -0.330622968193E+03   -0.10216E+02   -0.95145E+01  3248   0.284E+01
DAV:   5    -0.331135941554E+03   -0.51297E+00   -0.49968E+00  3408   0.571E+00    0.782E+01
DAV:   6    -0.517037256148E+03   -0.18590E+03   -0.31519E+03  4094   0.103E+02    0.101E+02
DAV:   7    -0.274672646921E+03    0.24236E+03   -0.36681E+03  3844   0.172E+02    0.317E+01
DAV:   8    -0.288272163644E+03   -0.13600E+02   -0.60556E+02  3330   0.768E+01    0.409E+01
DAV:   9    -0.266444498642E+03    0.21828E+02   -0.14179E+02  3327   0.404E+01    0.275E+01
DAV:  10    -0.260804344895E+03    0.56402E+01   -0.18160E+01  3632   0.102E+01    0.193E+01
DAV:  11    -0.260656536543E+03    0.14781E+00   -0.39093E+00  3277   0.527E+00    0.184E+01
DAV:  12    -0.258791176549E+03    0.18654E+01   -0.14804E+01  3320   0.119E+01    0.132E+01
DAV:  13    -0.256171404477E+03    0.26198E+01   -0.15280E+01  3624   0.998E+00    0.502E+00
DAV:  14    -0.256030594698E+03    0.14081E+00   -0.16545E+00  3504   0.334E+00    0.354E+00
DAV:  15    -0.256386122710E+03   -0.35553E+00   -0.23987E+00  3488   0.401E+00    0.610E+00
DAV:  16    -0.255843506370E+03    0.54262E+00   -0.17531E+00  3320   0.353E+00    0.225E+00
DAV:  17    -0.255811376598E+03    0.32130E-01   -0.10364E+00  3584   0.296E+00    0.180E+00
DAV:  18    -0.255790310645E+03    0.21066E-01   -0.36862E-01  3320   0.167E+00    0.101E+00
DAV:  19    -0.255785357932E+03    0.49527E-02   -0.81353E-02  3512   0.995E-01    0.465E-01
DAV:  20    -0.255788951934E+03   -0.35940E-02   -0.37452E-02  3408   0.483E-01    0.317E-01
DAV:  21    -0.255791653036E+03   -0.27011E-02   -0.57490E-03  3008   0.240E-01    0.176E-01
DAV:  22    -0.255795172557E+03   -0.35195E-02   -0.76574E-03  3413   0.214E-01    0.162E-01
DAV:  23    -0.255796227024E+03   -0.10545E-02   -0.14514E-03  3104   0.139E-01    0.771E-02
DAV:  24    -0.255796728930E+03   -0.50191E-03   -0.61432E-04  3250   0.738E-02    0.100E-01
DAV:  25    -0.255796630907E+03    0.98023E-04   -0.66472E-04  3368   0.779E-02    0.228E-02
DAV:  26    -0.255796629022E+03    0.18856E-05   -0.57254E-05  2856   0.201E-02    0.925E-03
DAV:  27    -0.255796629646E+03   -0.62442E-06   -0.22863E-05  2440   0.109E-02
   1 F= -.25579663E+03 E0= -.25572786E+03  d E =-.137536E+00
 running on   24 total cores
 distrk:  each k-point on    8 cores,    3 groups
 distr:  one band on    8 cores,    1 groups
 using from now: INCAR     
 vasp.5.4.4.18Apr17-6-g9f103f2a35 (build Jun 27 2018 15:25:23) complex          
  
 POSCAR found type information on POSCAR  Ti
 POSCAR found :  1 types and      72 ions
 scaLAPACK will be used

 ----------------------------------------------------------------------------- 
|                                                                             |
|           W    W    AA    RRRRR   N    N  II  N    N   GGGG   !!!           |
|           W    W   A  A   R    R  NN   N  II  NN   N  G    G  !!!           |
|           W    W  A    A  R    R  N N  N  II  N N  N  G       !!!           |
|           W WW W  AAAAAA  RRRRR   N  N N  II  N  N N  G  GGG   !            |
|           WW  WW  A    A  R   R   N   NN  II  N   NN  G    G                |
|           W    W  A    A  R    R  N    N  II  N    N   GGGG   !!!           |
|                                                                             |
|      You have enabled k-point parallelism (KPAR>1).                         |
|      This developmental code was originally  written by Paul Kent at ORNL,  |
|      and carefully double checked in Vienna.                                |
|      GW as well as linear response parallelism added by Martijn Marsman     |
|      and Georg Kresse.                                                      |
|      Carefully verify results versus KPAR=1.                                |
|      Report problems to Paul Kent and Vienna.                               |
|                                                                             |
 ----------------------------------------------------------------------------- 

 LDA part: xc-table for Pade appr. of Perdew
 POSCAR found type information on POSCAR  Ti
 POSCAR found :  1 types and      72 ions
 POSCAR, INCAR and KPOINTS ok, starting setup
 FFT: planning ...
 WAVECAR not read
 WARNING: random wavefunctions but no delay for mixing, default for NELMDL
 entering main loop
       N       E                     dE             d eps       ncg     rms          rms(c)
DAV:   1     0.126457927603E+04    0.12646E+04   -0.82837E+04  4344   0.124E+03
DAV:   2    -0.366327977852E+03   -0.16309E+04   -0.15834E+04  4344   0.278E+02
DAV:   3    -0.604426372644E+03   -0.23810E+03   -0.22030E+03  6304   0.977E+01
DAV:   4    -0.624097933075E+03   -0.19672E+02   -0.18328E+02  6400   0.288E+01
DAV:   5    -0.624953058379E+03   -0.85513E+00   -0.82896E+00  6264   0.486E+00    0.107E+02
DAV:   6    -0.907908598168E+03   -0.28296E+03   -0.31042E+03  8240   0.109E+02    0.103E+02
DAV:   7    -0.766956968585E+03    0.14095E+03   -0.73744E+03  8012   0.146E+02    0.765E+01
DAV:   8    -0.578624186994E+03    0.18833E+03   -0.18499E+03  7072   0.118E+02    0.616E+01
DAV:   9    -0.552199770031E+03    0.26424E+02   -0.86965E+02  7352   0.751E+01    0.389E+01
DAV:  10    -0.549622999978E+03    0.25768E+01   -0.14167E+02  6968   0.236E+01    0.298E+01
DAV:  11    -0.546641206710E+03    0.29818E+01   -0.16070E+01  6688   0.995E+00    0.247E+01
DAV:  12    -0.546942937698E+03   -0.30173E+00   -0.11332E+00  6752   0.193E+00    0.252E+01
DAV:  13    -0.545604848055E+03    0.13381E+01   -0.26320E+00  6632   0.376E+00    0.226E+01
DAV:  14    -0.544771908649E+03    0.83294E+00   -0.11331E+00  6696   0.276E+00    0.207E+01
DAV:  15    -0.543318629973E+03    0.14533E+01   -0.17695E+00  5928   0.357E+00    0.171E+01
DAV:  16    -0.540504102819E+03    0.28145E+01   -0.76317E+00  5864   0.719E+00    0.997E+00
DAV:  17    -0.539856268087E+03    0.64783E+00   -0.29222E+00  6472   0.421E+00    0.736E+00
DAV:  18    -0.539752790577E+03    0.10348E+00   -0.31524E-01  6640   0.132E+00    0.643E+00
DAV:  19    -0.539714367920E+03    0.38423E-01   -0.38499E-02  6632   0.423E-01    0.607E+00
DAV:  20    -0.539727272516E+03   -0.12905E-01   -0.34250E-03  6784   0.132E-01    0.617E+00
DAV:  21    -0.539534194567E+03    0.19308E+00   -0.12958E+00  6784   0.248E+00    0.331E+00
DAV:  22    -0.539527541301E+03    0.66533E-02   -0.12509E+00  6904   0.247E+00    0.330E+00
DAV:  23    -0.539506901620E+03    0.20640E-01   -0.17119E-01  6104   0.111E+00    0.308E+00
DAV:  24    -0.539508034675E+03   -0.11331E-02   -0.21057E-02  6368   0.339E-01    0.308E+00
DAV:  25    -0.539492420878E+03    0.15614E-01   -0.19655E-02  6624   0.326E-01    0.295E+00
DAV:  26    -0.539440762509E+03    0.51658E-01   -0.46347E-02  6856   0.537E-01    0.234E+00
DAV:  27    -0.539405482290E+03    0.35280E-01   -0.52009E-02  6896   0.501E-01    0.155E+00
DAV:  28    -0.539394029883E+03    0.11452E-01   -0.20904E-02  6960   0.312E-01    0.119E+00
DAV:  29    -0.539387160005E+03    0.68699E-02   -0.64215E-03  7024   0.171E-01    0.896E-01
DAV:  30    -0.539384171037E+03    0.29890E-02   -0.23100E-03  7056   0.967E-02    0.720E-01
DAV:  31    -0.539379974107E+03    0.41969E-02   -0.70696E-03  6872   0.183E-01    0.356E-01
DAV:  32    -0.539379086743E+03    0.88736E-03   -0.27591E-03  7080   0.106E-01    0.180E-01
DAV:  33    -0.539378762445E+03    0.32430E-03   -0.15432E-03  6856   0.803E-02    0.215E-02
DAV:  34    -0.539378797961E+03   -0.35516E-04   -0.36066E-04  6736   0.398E-02    0.501E-02
DAV:  35    -0.539378773705E+03    0.24255E-04   -0.73048E-05  6024   0.236E-02    0.251E-02
DAV:  36    -0.539378766596E+03    0.71099E-05   -0.30648E-05  4984   0.120E-02    0.155E-02
DAV:  37    -0.539378769220E+03   -0.26246E-05   -0.31771E-05  4856   0.162E-02
   1 F= -.53937877E+03 E0= -.53929888E+03  d E =-.159776E+00
Distance=1.650
 running on   24 total cores
 distrk:  each k-point on    8 cores,    3 groups
 distr:  one band on    8 cores,    1 groups
 using from now: INCAR     
 vasp.5.4.4.18Apr17-6-g9f103f2a35 (build Jun 27 2018 15:25:23) complex          
  
 POSCAR found type information on POSCAR  Ti
 POSCAR found :  1 types and      36 ions
 scaLAPACK will be used

 ----------------------------------------------------------------------------- 
|                                                                             |
|           W    W    AA    RRRRR   N    N  II  N    N   GGGG   !!!           |
|           W    W   A  A   R    R  NN   N  II  NN   N  G    G  !!!           |
|           W    W  A    A  R    R  N N  N  II  N N  N  G       !!!           |
|           W WW W  AAAAAA  RRRRR   N  N N  II  N  N N  G  GGG   !            |
|           WW  WW  A    A  R   R   N   NN  II  N   NN  G    G                |
|           W    W  A    A  R    R  N    N  II  N    N   GGGG   !!!           |
|                                                                             |
|      You have enabled k-point parallelism (KPAR>1).                         |
|      This developmental code was originally  written by Paul Kent at ORNL,  |
|      and carefully double checked in Vienna.                                |
|      GW as well as linear response parallelism added by Martijn Marsman     |
|      and Georg Kresse.                                                      |
|      Carefully verify results versus KPAR=1.                                |
|      Report problems to Paul Kent and Vienna.                               |
|                                                                             |
 ----------------------------------------------------------------------------- 

 LDA part: xc-table for Pade appr. of Perdew
 POSCAR found type information on POSCAR  Ti
 POSCAR found :  1 types and      36 ions
 POSCAR, INCAR and KPOINTS ok, starting setup
 FFT: planning ...
 WAVECAR not read
 entering main loop
       N       E                     dE             d eps       ncg     rms          rms(c)
DAV:   1     0.656090047992E+03    0.65609E+03   -0.40777E+04  2184   0.112E+03
DAV:   2    -0.184104915530E+03   -0.84019E+03   -0.81232E+03  2184   0.247E+02
DAV:   3    -0.308923627153E+03   -0.12482E+03   -0.11842E+03  3472   0.848E+01
DAV:   4    -0.319755671042E+03   -0.10832E+02   -0.10292E+02  3496   0.265E+01
DAV:   5    -0.320460343356E+03   -0.70467E+00   -0.67380E+00  3544   0.546E+00    0.692E+01
DAV:   6    -0.451069450968E+03   -0.13061E+03   -0.21595E+03  3876   0.988E+01    0.707E+01
DAV:   7    -0.277406193319E+03    0.17366E+03   -0.19239E+03  4060   0.101E+02    0.392E+01
DAV:   8    -0.266209363421E+03    0.11197E+02   -0.59374E+02  3674   0.678E+01    0.220E+01
DAV:   9    -0.269190646783E+03   -0.29813E+01   -0.53759E+01  3680   0.169E+01    0.219E+01
DAV:  10    -0.272850200597E+03   -0.36596E+01   -0.48568E+00  3560   0.555E+00    0.258E+01
DAV:  11    -0.261472075294E+03    0.11378E+02   -0.24762E+01  3176   0.181E+01    0.826E+00
DAV:  12    -0.260821277950E+03    0.65080E+00   -0.12994E+01  3760   0.101E+01    0.577E+00
DAV:  13    -0.260413334501E+03    0.40794E+00   -0.27098E+00  3552   0.476E+00    0.405E+00
DAV:  14    -0.260558637337E+03   -0.14530E+00   -0.59806E-01  3496   0.210E+00    0.376E+00
DAV:  15    -0.260432153541E+03    0.12648E+00   -0.12048E-01  3232   0.800E-01    0.245E+00
DAV:  16    -0.260371239053E+03    0.60914E-01   -0.18767E-01  3496   0.695E-01    0.115E+00
DAV:  17    -0.260381975623E+03   -0.10737E-01   -0.21104E-02  3168   0.515E-01    0.102E+00
DAV:  18    -0.260369903104E+03    0.12073E-01   -0.54412E-02  3696   0.611E-01    0.170E-01
DAV:  19    -0.260371978368E+03   -0.20753E-02   -0.14097E-02  3704   0.332E-01    0.270E-01
DAV:  20    -0.260373813182E+03   -0.18348E-02   -0.11000E-03  2648   0.960E-02    0.258E-01
DAV:  21    -0.260373792719E+03    0.20462E-04   -0.33949E-04  3082   0.423E-02    0.194E-01
DAV:  22    -0.260373260986E+03    0.53173E-03   -0.19585E-03  3664   0.111E-01    0.547E-02
DAV:  23    -0.260373246756E+03    0.14230E-04   -0.20708E-04  3116   0.478E-02    0.126E-02
DAV:  24    -0.260373245344E+03    0.14120E-05   -0.93833E-06  1944   0.790E-03
   1 F= -.26037325E+03 E0= -.26032200E+03  d E =-.102500E+00
 running on   24 total cores
 distrk:  each k-point on    8 cores,    3 groups
 distr:  one band on    8 cores,    1 groups
 using from now: INCAR     
 vasp.5.4.4.18Apr17-6-g9f103f2a35 (build Jun 27 2018 15:25:23) complex          
  
 POSCAR found type information on POSCAR  Ti
 POSCAR found :  1 types and      36 ions
 scaLAPACK will be used

 ----------------------------------------------------------------------------- 
|                                                                             |
|           W    W    AA    RRRRR   N    N  II  N    N   GGGG   !!!           |
|           W    W   A  A   R    R  NN   N  II  NN   N  G    G  !!!           |
|           W    W  A    A  R    R  N N  N  II  N N  N  G       !!!           |
|           W WW W  AAAAAA  RRRRR   N  N N  II  N  N N  G  GGG   !            |
|           WW  WW  A    A  R   R   N   NN  II  N   NN  G    G                |
|           W    W  A    A  R    R  N    N  II  N    N   GGGG   !!!           |
|                                                                             |
|      You have enabled k-point parallelism (KPAR>1).                         |
|      This developmental code was originally  written by Paul Kent at ORNL,  |
|      and carefully double checked in Vienna.                                |
|      GW as well as linear response parallelism added by Martijn Marsman     |
|      and Georg Kresse.                                                      |
|      Carefully verify results versus KPAR=1.                                |
|      Report problems to Paul Kent and Vienna.                               |
|                                                                             |
 ----------------------------------------------------------------------------- 

 LDA part: xc-table for Pade appr. of Perdew
 POSCAR found type information on POSCAR  Ti
 POSCAR found :  1 types and      36 ions
 POSCAR, INCAR and KPOINTS ok, starting setup
 FFT: planning ...
 WAVECAR not read
 WARNING: random wavefunctions but no delay for mixing, default for NELMDL
 entering main loop
       N       E                     dE             d eps       ncg     rms          rms(c)
DAV:   1     0.708482549368E+03    0.70848E+03   -0.41325E+04  2184   0.112E+03
DAV:   2    -0.185108793895E+03   -0.89359E+03   -0.85941E+03  2184   0.250E+02
DAV:   3    -0.320544842293E+03   -0.13544E+03   -0.12735E+03  3304   0.902E+01
DAV:   4    -0.330667539175E+03   -0.10123E+02   -0.94528E+01  3272   0.285E+01
DAV:   5    -0.331138266179E+03   -0.47073E+00   -0.46094E+00  3392   0.548E+00    0.782E+01
DAV:   6    -0.516069215836E+03   -0.18493E+03   -0.31437E+03  4099   0.103E+02    0.101E+02
DAV:   7    -0.274279080241E+03    0.24179E+03   -0.36689E+03  3828   0.173E+02    0.316E+01
DAV:   8    -0.288474226289E+03   -0.14195E+02   -0.60882E+02  3322   0.769E+01    0.410E+01
DAV:   9    -0.266536831403E+03    0.21937E+02   -0.14177E+02  3309   0.403E+01    0.277E+01
DAV:  10    -0.260702489716E+03    0.58343E+01   -0.18685E+01  3608   0.103E+01    0.191E+01
DAV:  11    -0.260634246015E+03    0.68244E-01   -0.38501E+00  3288   0.518E+00    0.184E+01
DAV:  12    -0.258634179105E+03    0.20001E+01   -0.15592E+01  3344   0.123E+01    0.127E+01
DAV:  13    -0.256171296679E+03    0.24629E+01   -0.15474E+01  3640   0.985E+00    0.502E+00
DAV:  14    -0.256029806988E+03    0.14149E+00   -0.15314E+00  3528   0.335E+00    0.352E+00
DAV:  15    -0.256407997501E+03   -0.37819E+00   -0.25894E+00  3488   0.407E+00    0.623E+00
DAV:  16    -0.255836938219E+03    0.57106E+00   -0.19328E+00  3312   0.371E+00    0.214E+00
DAV:  17    -0.255805908467E+03    0.31030E-01   -0.86358E-01  3584   0.264E+00    0.160E+00
DAV:  18    -0.255791404810E+03    0.14504E-01   -0.32441E-01  3328   0.163E+00    0.101E+00
DAV:  19    -0.255785993488E+03    0.54113E-02   -0.77527E-02  3568   0.942E-01    0.526E-01
DAV:  20    -0.255789382866E+03   -0.33894E-02   -0.44581E-02  3424   0.524E-01    0.345E-01
DAV:  21    -0.255791602962E+03   -0.22201E-02   -0.64251E-03  3000   0.258E-01    0.205E-01
DAV:  22    -0.255795049643E+03   -0.34467E-02   -0.75585E-03  3440   0.211E-01    0.138E-01
DAV:  23    -0.255796260999E+03   -0.12114E-02   -0.11641E-03  2984   0.130E-01    0.777E-02
DAV:  24    -0.255796775266E+03   -0.51427E-03   -0.61339E-04  3344   0.695E-02    0.105E-01
DAV:  25    -0.255796675096E+03    0.10017E-03   -0.72670E-04  3344   0.798E-02    0.232E-02
DAV:  26    -0.255796675756E+03   -0.65971E-06   -0.60728E-05  2840   0.208E-02    0.782E-03
DAV:  27    -0.255796677241E+03   -0.14850E-05   -0.17806E-05  2312   0.931E-03
   1 F= -.25579668E+03 E0= -.25572791E+03  d E =-.137540E+00
 running on   24 total cores
 distrk:  each k-point on    8 cores,    3 groups
 distr:  one band on    8 cores,    1 groups
 using from now: INCAR     
 vasp.5.4.4.18Apr17-6-g9f103f2a35 (build Jun 27 2018 15:25:23) complex          
  
 POSCAR found type information on POSCAR  Ti
 POSCAR found :  1 types and      72 ions
 scaLAPACK will be used

 ----------------------------------------------------------------------------- 
|                                                                             |
|           W    W    AA    RRRRR   N    N  II  N    N   GGGG   !!!           |
|           W    W   A  A   R    R  NN   N  II  NN   N  G    G  !!!           |
|           W    W  A    A  R    R  N N  N  II  N N  N  G       !!!           |
|           W WW W  AAAAAA  RRRRR   N  N N  II  N  N N  G  GGG   !            |
|           WW  WW  A    A  R   R   N   NN  II  N   NN  G    G                |
|           W    W  A    A  R    R  N    N  II  N    N   GGGG   !!!           |
|                                                                             |
|      You have enabled k-point parallelism (KPAR>1).                         |
|      This developmental code was originally  written by Paul Kent at ORNL,  |
|      and carefully double checked in Vienna.                                |
|      GW as well as linear response parallelism added by Martijn Marsman     |
|      and Georg Kresse.                                                      |
|      Carefully verify results versus KPAR=1.                                |
|      Report problems to Paul Kent and Vienna.                               |
|                                                                             |
 ----------------------------------------------------------------------------- 

 LDA part: xc-table for Pade appr. of Perdew
 POSCAR found type information on POSCAR  Ti
 POSCAR found :  1 types and      72 ions
 POSCAR, INCAR and KPOINTS ok, starting setup
 FFT: planning ...
 WAVECAR not read
 WARNING: random wavefunctions but no delay for mixing, default for NELMDL
 entering main loop
       N       E                     dE             d eps       ncg     rms          rms(c)
DAV:   1     0.125712090686E+04    0.12571E+04   -0.82758E+04  4344   0.124E+03
DAV:   2    -0.366450358326E+03   -0.16236E+04   -0.15769E+04  4344   0.278E+02
DAV:   3    -0.603819054092E+03   -0.23737E+03   -0.21958E+03  6272   0.972E+01
DAV:   4    -0.623885190497E+03   -0.20066E+02   -0.18716E+02  6496   0.287E+01
DAV:   5    -0.624716529221E+03   -0.83134E+00   -0.80534E+00  6296   0.480E+00    0.107E+02
DAV:   6    -0.914067158015E+03   -0.28935E+03   -0.30467E+03  8208   0.105E+02    0.101E+02
DAV:   7    -0.758219835257E+03    0.15585E+03   -0.71879E+03  8052   0.143E+02    0.740E+01
DAV:   8    -0.577808367404E+03    0.18041E+03   -0.17355E+03  7136   0.113E+02    0.610E+01
DAV:   9    -0.552127218802E+03    0.25681E+02   -0.80506E+02  7336   0.727E+01    0.379E+01
DAV:  10    -0.549435083767E+03    0.26921E+01   -0.12721E+02  6904   0.218E+01    0.283E+01
DAV:  11    -0.547401819597E+03    0.20333E+01   -0.11089E+01  6696   0.745E+00    0.243E+01
DAV:  12    -0.547336140232E+03    0.65679E-01   -0.72772E-01  6560   0.139E+00    0.241E+01
DAV:  13    -0.547142834218E+03    0.19331E+00   -0.78047E-02  6760   0.553E-01    0.238E+01
DAV:  14    -0.544603985923E+03    0.25388E+01   -0.54236E+00  6720   0.531E+00    0.186E+01
DAV:  15    -0.541779882943E+03    0.28241E+01   -0.10188E+01  6128   0.791E+00    0.951E+00
DAV:  16    -0.541256302915E+03    0.52358E+00   -0.18025E+00  6160   0.360E+00    0.722E+00
DAV:  17    -0.541161763245E+03    0.94540E-01   -0.16469E-01  6408   0.106E+00    0.682E+00
DAV:  18    -0.541065865786E+03    0.95897E-01   -0.61302E-02  6656   0.643E-01    0.633E+00
DAV:  19    -0.540817268336E+03    0.24860E+00   -0.10202E+00  6928   0.222E+00    0.491E+00
DAV:  20    -0.540621809938E+03    0.19546E+00   -0.11661E+00  7104   0.242E+00    0.335E+00
DAV:  21    -0.540576508073E+03    0.45302E-01   -0.54735E-01  6536   0.181E+00    0.291E+00
DAV:  22    -0.540517355282E+03    0.59153E-01   -0.25819E-01  6432   0.135E+00    0.224E+00
DAV:  23    -0.540481822050E+03    0.35533E-01   -0.10583E-01  6392   0.867E-01    0.144E+00
DAV:  24    -0.540457916936E+03    0.23905E-01   -0.19728E-01  6968   0.917E-01    0.499E-01
DAV:  25    -0.540462626801E+03   -0.47099E-02   -0.43099E-02  6296   0.501E-01    0.718E-01
DAV:  26    -0.540467266240E+03   -0.46394E-02   -0.17152E-02  6752   0.287E-01    0.849E-01
DAV:  27    -0.540462039839E+03    0.52264E-02   -0.70706E-03  6376   0.214E-01    0.609E-01
DAV:  28    -0.540458316805E+03    0.37230E-02   -0.54491E-03  6984   0.149E-01    0.319E-01
DAV:  29    -0.540457297756E+03    0.10190E-02   -0.28735E-03  6784   0.114E-01    0.148E-01
DAV:  30    -0.540457067273E+03    0.23048E-03   -0.11973E-03  6968   0.683E-02    0.660E-02
DAV:  31    -0.540457071019E+03   -0.37453E-05   -0.16205E-04  6256   0.326E-02    0.628E-02
DAV:  32    -0.540457062520E+03    0.84993E-05   -0.50846E-05  5552   0.190E-02    0.518E-02
DAV:  33    -0.540457061703E+03    0.81673E-06   -0.67848E-06  2976   0.744E-03
   1 F= -.54045706E+03 E0= -.54037529E+03  d E =-.163542E+00
Distance=1.700
 running on   24 total cores
 distrk:  each k-point on    8 cores,    3 groups
 distr:  one band on    8 cores,    1 groups
 using from now: INCAR     
 vasp.5.4.4.18Apr17-6-g9f103f2a35 (build Jun 27 2018 15:25:23) complex          
  
 POSCAR found type information on POSCAR  Ti
 POSCAR found :  1 types and      36 ions
 scaLAPACK will be used

 ----------------------------------------------------------------------------- 
|                                                                             |
|           W    W    AA    RRRRR   N    N  II  N    N   GGGG   !!!           |
|           W    W   A  A   R    R  NN   N  II  NN   N  G    G  !!!           |
|           W    W  A    A  R    R  N N  N  II  N N  N  G       !!!           |
|           W WW W  AAAAAA  RRRRR   N  N N  II  N  N N  G  GGG   !            |
|           WW  WW  A    A  R   R   N   NN  II  N   NN  G    G                |
|           W    W  A    A  R    R  N    N  II  N    N   GGGG   !!!           |
|                                                                             |
|      You have enabled k-point parallelism (KPAR>1).                         |
|      This developmental code was originally  written by Paul Kent at ORNL,  |
|      and carefully double checked in Vienna.                                |
|      GW as well as linear response parallelism added by Martijn Marsman     |
|      and Georg Kresse.                                                      |
|      Carefully verify results versus KPAR=1.                                |
|      Report problems to Paul Kent and Vienna.                               |
|                                                                             |
 ----------------------------------------------------------------------------- 

 LDA part: xc-table for Pade appr. of Perdew
 POSCAR found type information on POSCAR  Ti
 POSCAR found :  1 types and      36 ions
 POSCAR, INCAR and KPOINTS ok, starting setup
 FFT: planning ...
 WAVECAR not read
 entering main loop
       N       E                     dE             d eps       ncg     rms          rms(c)
DAV:   1     0.658005066937E+03    0.65801E+03   -0.40780E+04  2184   0.112E+03
DAV:   2    -0.182884741017E+03   -0.84089E+03   -0.81278E+03  2184   0.247E+02
DAV:   3    -0.308661515942E+03   -0.12578E+03   -0.11930E+03  3488   0.850E+01
DAV:   4    -0.319716212957E+03   -0.11055E+02   -0.10498E+02  3456   0.266E+01
DAV:   5    -0.320455122985E+03   -0.73891E+00   -0.70658E+00  3552   0.564E+00    0.692E+01
DAV:   6    -0.451127318914E+03   -0.13067E+03   -0.21638E+03  3892   0.987E+01    0.706E+01
DAV:   7    -0.277386322993E+03    0.17374E+03   -0.19209E+03  4036   0.102E+02    0.393E+01
DAV:   8    -0.266057317075E+03    0.11329E+02   -0.59792E+02  3658   0.678E+01    0.219E+01
DAV:   9    -0.269156394657E+03   -0.30991E+01   -0.54145E+01  3688   0.168E+01    0.219E+01
DAV:  10    -0.272908581337E+03   -0.37522E+01   -0.50643E+00  3520   0.563E+00    0.259E+01
DAV:  11    -0.261577103892E+03    0.11331E+02   -0.24244E+01  3176   0.179E+01    0.856E+00
DAV:  12    -0.260789613449E+03    0.78749E+00   -0.12544E+01  3744   0.101E+01    0.544E+00
DAV:  13    -0.260414743082E+03    0.37487E+00   -0.25591E+00  3544   0.468E+00    0.399E+00
DAV:  14    -0.260590167148E+03   -0.17542E+00   -0.73762E-01  3480   0.236E+00    0.393E+00
DAV:  15    -0.260443895017E+03    0.14627E+00   -0.14501E-01  3352   0.888E-01    0.260E+00
DAV:  16    -0.260372265548E+03    0.71629E-01   -0.21255E-01  3528   0.764E-01    0.121E+00
DAV:  17    -0.260381844470E+03   -0.95789E-02   -0.20478E-02  3088   0.523E-01    0.106E+00
DAV:  18    -0.260369892536E+03    0.11952E-01   -0.50750E-02  3696   0.590E-01    0.185E-01
DAV:  19    -0.260371556236E+03   -0.16637E-02   -0.13993E-02  3749   0.330E-01    0.243E-01
DAV:  20    -0.260373943717E+03   -0.23875E-02   -0.15875E-03  2736   0.122E-01    0.281E-01
DAV:  21    -0.260373837450E+03    0.10627E-03   -0.38552E-04  2826   0.485E-02    0.207E-01
DAV:  22    -0.260373253753E+03    0.58370E-03   -0.17363E-03  3624   0.102E-01    0.825E-02
DAV:  23    -0.260373199946E+03    0.53807E-04   -0.30565E-04  3288   0.557E-02    0.198E-02
DAV:  24    -0.260373197815E+03    0.21305E-05   -0.18056E-05  2288   0.109E-02
   1 F= -.26037320E+03 E0= -.26032195E+03  d E =-.102503E+00
 running on   24 total cores
 distrk:  each k-point on    8 cores,    3 groups
 distr:  one band on    8 cores,    1 groups
 using from now: INCAR     
 vasp.5.4.4.18Apr17-6-g9f103f2a35 (build Jun 27 2018 15:25:23) complex          
  
 POSCAR found type information on POSCAR  Ti
 POSCAR found :  1 types and      36 ions
 scaLAPACK will be used

 ----------------------------------------------------------------------------- 
|                                                                             |
|           W    W    AA    RRRRR   N    N  II  N    N   GGGG   !!!           |
|           W    W   A  A   R    R  NN   N  II  NN   N  G    G  !!!           |
|           W    W  A    A  R    R  N N  N  II  N N  N  G       !!!           |
|           W WW W  AAAAAA  RRRRR   N  N N  II  N  N N  G  GGG   !            |
|           WW  WW  A    A  R   R   N   NN  II  N   NN  G    G                |
|           W    W  A    A  R    R  N    N  II  N    N   GGGG   !!!           |
|                                                                             |
|      You have enabled k-point parallelism (KPAR>1).                         |
|      This developmental code was originally  written by Paul Kent at ORNL,  |
|      and carefully double checked in Vienna.                                |
|      GW as well as linear response parallelism added by Martijn Marsman     |
|      and Georg Kresse.                                                      |
|      Carefully verify results versus KPAR=1.                                |
|      Report problems to Paul Kent and Vienna.                               |
|                                                                             |
 ----------------------------------------------------------------------------- 

 LDA part: xc-table for Pade appr. of Perdew
 POSCAR found type information on POSCAR  Ti
 POSCAR found :  1 types and      36 ions
 POSCAR, INCAR and KPOINTS ok, starting setup
 FFT: planning ...
 WAVECAR not read
 WARNING: random wavefunctions but no delay for mixing, default for NELMDL
 entering main loop
       N       E                     dE             d eps       ncg     rms          rms(c)
DAV:   1     0.710446682095E+03    0.71045E+03   -0.41314E+04  2184   0.112E+03
DAV:   2    -0.184244032488E+03   -0.89469E+03   -0.86171E+03  2184   0.250E+02
DAV:   3    -0.320300243307E+03   -0.13606E+03   -0.12760E+03  3320   0.902E+01
DAV:   4    -0.330637286158E+03   -0.10337E+02   -0.96155E+01  3256   0.285E+01
DAV:   5    -0.331138030712E+03   -0.50074E+00   -0.48991E+00  3416   0.569E+00    0.782E+01
DAV:   6    -0.516309425422E+03   -0.18517E+03   -0.31459E+03  4108   0.103E+02    0.101E+02
DAV:   7    -0.274981515684E+03    0.24133E+03   -0.36740E+03  3812   0.172E+02    0.317E+01
DAV:   8    -0.288401224594E+03   -0.13420E+02   -0.60469E+02  3335   0.768E+01    0.410E+01
DAV:   9    -0.266520543708E+03    0.21881E+02   -0.14204E+02  3312   0.403E+01    0.277E+01
DAV:  10    -0.260822172253E+03    0.56984E+01   -0.18346E+01  3616   0.102E+01    0.194E+01
DAV:  11    -0.260748632459E+03    0.73540E-01   -0.40036E+00  3277   0.523E+00    0.186E+01
DAV:  12    -0.258907047206E+03    0.18416E+01   -0.14215E+01  3296   0.116E+01    0.135E+01
DAV:  13    -0.256175245608E+03    0.27318E+01   -0.16136E+01  3608   0.102E+01    0.510E+00
DAV:  14    -0.256030683260E+03    0.14456E+00   -0.17550E+00  3528   0.349E+00    0.354E+00
DAV:  15    -0.256366021921E+03   -0.33534E+00   -0.23281E+00  3496   0.392E+00    0.599E+00
DAV:  16    -0.255844966207E+03    0.52106E+00   -0.17339E+00  3296   0.352E+00    0.223E+00
DAV:  17    -0.255808916429E+03    0.36050E-01   -0.96380E-01  3560   0.292E+00    0.169E+00
DAV:  18    -0.255792540987E+03    0.16375E-01   -0.34747E-01  3309   0.161E+00    0.104E+00
DAV:  19    -0.255786065092E+03    0.64759E-02   -0.83333E-02  3576   0.991E-01    0.456E-01
DAV:  20    -0.255789150466E+03   -0.30854E-02   -0.36503E-02  3416   0.477E-01    0.317E-01
DAV:  21    -0.255791455373E+03   -0.23049E-02   -0.56702E-03  3016   0.246E-01    0.193E-01
DAV:  22    -0.255795362259E+03   -0.39069E-02   -0.87257E-03  3408   0.232E-01    0.168E-01
DAV:  23    -0.255796422751E+03   -0.10605E-02   -0.15383E-03  3120   0.140E-01    0.766E-02
DAV:  24    -0.255797027542E+03   -0.60479E-03   -0.75746E-04  3376   0.782E-02    0.109E-01
DAV:  25    -0.255796922338E+03    0.10520E-03   -0.78030E-04  3344   0.837E-02    0.241E-02
DAV:  26    -0.255796924793E+03   -0.24552E-05   -0.56820E-05  2792   0.207E-02    0.924E-03
DAV:  27    -0.255796926324E+03   -0.15307E-05   -0.21572E-05  2432   0.103E-02
   1 F= -.25579693E+03 E0= -.25572815E+03  d E =-.137543E+00
 running on   24 total cores
 distrk:  each k-point on    8 cores,    3 groups
 distr:  one band on    8 cores,    1 groups
 using from now: INCAR     
 vasp.5.4.4.18Apr17-6-g9f103f2a35 (build Jun 27 2018 15:25:23) complex          
  
 POSCAR found type information on POSCAR  Ti
 POSCAR found :  1 types and      72 ions
 scaLAPACK will be used

 ----------------------------------------------------------------------------- 
|                                                                             |
|           W    W    AA    RRRRR   N    N  II  N    N   GGGG   !!!           |
|           W    W   A  A   R    R  NN   N  II  NN   N  G    G  !!!           |
|           W    W  A    A  R    R  N N  N  II  N N  N  G       !!!           |
|           W WW W  AAAAAA  RRRRR   N  N N  II  N  N N  G  GGG   !            |
|           WW  WW  A    A  R   R   N   NN  II  N   NN  G    G                |
|           W    W  A    A  R    R  N    N  II  N    N   GGGG   !!!           |
|                                                                             |
|      You have enabled k-point parallelism (KPAR>1).                         |
|      This developmental code was originally  written by Paul Kent at ORNL,  |
|      and carefully double checked in Vienna.                                |
|      GW as well as linear response parallelism added by Martijn Marsman     |
|      and Georg Kresse.                                                      |
|      Carefully verify results versus KPAR=1.                                |
|      Report problems to Paul Kent and Vienna.                               |
|                                                                             |
 ----------------------------------------------------------------------------- 

 LDA part: xc-table for Pade appr. of Perdew
 POSCAR found type information on POSCAR  Ti
 POSCAR found :  1 types and      72 ions
 POSCAR, INCAR and KPOINTS ok, starting setup
 FFT: planning ...
 WAVECAR not read
 WARNING: random wavefunctions but no delay for mixing, default for NELMDL
 entering main loop
       N       E                     dE             d eps       ncg     rms          rms(c)
DAV:   1     0.125567216249E+04    0.12557E+04   -0.82824E+04  4344   0.124E+03
DAV:   2    -0.365485911509E+03   -0.16212E+04   -0.15746E+04  4344   0.278E+02
DAV:   3    -0.603803390652E+03   -0.23832E+03   -0.22057E+03  6328   0.969E+01
DAV:   4    -0.623773020524E+03   -0.19970E+02   -0.18573E+02  6448   0.284E+01
DAV:   5    -0.624665241594E+03   -0.89222E+00   -0.86161E+00  6312   0.481E+00    0.106E+02
DAV:   6    -0.919208138623E+03   -0.29454E+03   -0.29817E+03  8192   0.103E+02    0.991E+01
DAV:   7    -0.750521482697E+03    0.16869E+03   -0.69963E+03  8036   0.140E+02    0.718E+01
DAV:   8    -0.574621934120E+03    0.17590E+03   -0.16183E+03  7160   0.108E+02    0.594E+01
DAV:   9    -0.552409328324E+03    0.22213E+02   -0.72985E+02  7272   0.684E+01    0.372E+01
DAV:  10    -0.549652953333E+03    0.27564E+01   -0.11813E+02  6896   0.209E+01    0.274E+01
DAV:  11    -0.547918726786E+03    0.17342E+01   -0.86269E+00  6768   0.596E+00    0.238E+01
DAV:  12    -0.546822692193E+03    0.10960E+01   -0.11682E+00  6640   0.231E+00    0.217E+01
DAV:  13    -0.544484905189E+03    0.23378E+01   -0.36659E+00  6768   0.460E+00    0.166E+01
DAV:  14    -0.542146942658E+03    0.23380E+01   -0.63784E+00  5696   0.706E+00    0.842E+00
DAV:  15    -0.541493576115E+03    0.65337E+00   -0.20613E+00  5992   0.402E+00    0.468E+00
DAV:  16    -0.541562462453E+03   -0.68886E-01   -0.85805E-01  6488   0.231E+00    0.481E+00
DAV:  17    -0.541481910116E+03    0.80552E-01   -0.50375E-01  6536   0.164E+00    0.400E+00
DAV:  18    -0.541378668515E+03    0.10324E+00   -0.65176E-01  6736   0.188E+00    0.288E+00
DAV:  19    -0.541303647835E+03    0.75021E-01   -0.94934E-01  6856   0.245E+00    0.172E+00
DAV:  20    -0.541306113481E+03   -0.24656E-02   -0.24579E-01  6568   0.122E+00    0.187E+00
DAV:  21    -0.541283574396E+03    0.22539E-01   -0.43644E-02  6448   0.511E-01    0.140E+00
DAV:  22    -0.541275161599E+03    0.84128E-02   -0.18293E-02  6720   0.319E-01    0.111E+00
DAV:  23    -0.541264955876E+03    0.10206E-01   -0.33128E-02  6976   0.392E-01    0.666E-01
DAV:  24    -0.541261362652E+03    0.35932E-02   -0.22386E-02  6856   0.322E-01    0.314E-01
DAV:  25    -0.541260148330E+03    0.12143E-02   -0.81823E-03  6312   0.217E-01    0.912E-02
DAV:  26    -0.541260133775E+03    0.14556E-04   -0.78711E-04  6768   0.585E-02    0.724E-02
DAV:  27    -0.541260131203E+03    0.25721E-05   -0.31711E-04  6856   0.385E-02    0.642E-02
DAV:  28    -0.541260111414E+03    0.19788E-04   -0.17523E-04  6512   0.305E-02    0.521E-02
DAV:  29    -0.541260112781E+03   -0.13663E-05   -0.83853E-05  6328   0.202E-02    0.494E-02
DAV:  30    -0.541260096104E+03    0.16676E-04   -0.33768E-05  5216   0.155E-02    0.349E-02
DAV:  31    -0.541260083807E+03    0.12297E-04   -0.17740E-05  4032   0.105E-02    0.177E-02
DAV:  32    -0.541260081911E+03    0.18966E-05   -0.87998E-06  2776   0.665E-03
   1 F= -.54126008E+03 E0= -.54117692E+03  d E =-.166325E+00
Distance=1.750
 running on   24 total cores
 distrk:  each k-point on    8 cores,    3 groups
 distr:  one band on    8 cores,    1 groups
 using from now: INCAR     
 vasp.5.4.4.18Apr17-6-g9f103f2a35 (build Jun 27 2018 15:25:23) complex          
  
 POSCAR found type information on POSCAR  Ti
 POSCAR found :  1 types and      36 ions
 scaLAPACK will be used

 ----------------------------------------------------------------------------- 
|                                                                             |
|           W    W    AA    RRRRR   N    N  II  N    N   GGGG   !!!           |
|           W    W   A  A   R    R  NN   N  II  NN   N  G    G  !!!           |
|           W    W  A    A  R    R  N N  N  II  N N  N  G       !!!           |
|           W WW W  AAAAAA  RRRRR   N  N N  II  N  N N  G  GGG   !            |
|           WW  WW  A    A  R   R   N   NN  II  N   NN  G    G                |
|           W    W  A    A  R    R  N    N  II  N    N   GGGG   !!!           |
|                                                                             |
|      You have enabled k-point parallelism (KPAR>1).                         |
|      This developmental code was originally  written by Paul Kent at ORNL,  |
|      and carefully double checked in Vienna.                                |
|      GW as well as linear response parallelism added by Martijn Marsman     |
|      and Georg Kresse.                                                      |
|      Carefully verify results versus KPAR=1.                                |
|      Report problems to Paul Kent and Vienna.                               |
|                                                                             |
 ----------------------------------------------------------------------------- 

 LDA part: xc-table for Pade appr. of Perdew
 POSCAR found type information on POSCAR  Ti
 POSCAR found :  1 types and      36 ions
 POSCAR, INCAR and KPOINTS ok, starting setup
 FFT: planning ...
 WAVECAR not read
 entering main loop
       N       E                     dE             d eps       ncg     rms          rms(c)
DAV:   1     0.658593416373E+03    0.65859E+03   -0.40746E+04  2184   0.112E+03
DAV:   2    -0.183876758689E+03   -0.84247E+03   -0.81463E+03  2184   0.247E+02
DAV:   3    -0.308705848527E+03   -0.12483E+03   -0.11853E+03  3480   0.845E+01
DAV:   4    -0.319741364358E+03   -0.11036E+02   -0.10486E+02  3480   0.266E+01
DAV:   5    -0.320456899741E+03   -0.71554E+00   -0.68094E+00  3568   0.552E+00    0.692E+01
DAV:   6    -0.450934844164E+03   -0.13048E+03   -0.21582E+03  3892   0.987E+01    0.706E+01
DAV:   7    -0.277477292101E+03    0.17346E+03   -0.19230E+03  4052   0.102E+02    0.394E+01
DAV:   8    -0.266067011041E+03    0.11410E+02   -0.59838E+02  3690   0.681E+01    0.220E+01
DAV:   9    -0.269143034293E+03   -0.30760E+01   -0.53952E+01  3680   0.170E+01    0.219E+01
DAV:  10    -0.272774255020E+03   -0.36312E+01   -0.50011E+00  3560   0.556E+00    0.259E+01
DAV:  11    -0.261503426701E+03    0.11271E+02   -0.24501E+01  3152   0.181E+01    0.835E+00
DAV:  12    -0.260788026646E+03    0.71540E+00   -0.12131E+01  3760   0.974E+00    0.543E+00
DAV:  13    -0.260418078409E+03    0.36995E+00   -0.26033E+00  3568   0.470E+00    0.404E+00
DAV:  14    -0.260569997354E+03   -0.15192E+00   -0.70810E-01  3488   0.233E+00    0.380E+00
DAV:  15    -0.260440516206E+03    0.12948E+00   -0.12555E-01  3248   0.834E-01    0.255E+00
DAV:  16    -0.260375125155E+03    0.65391E-01   -0.18284E-01  3520   0.688E-01    0.130E+00
DAV:  17    -0.260383103523E+03   -0.79784E-02   -0.17282E-02  3104   0.462E-01    0.109E+00
DAV:  18    -0.260369619140E+03    0.13484E-01   -0.62739E-02  3696   0.654E-01    0.151E-01
DAV:  19    -0.260371546144E+03   -0.19270E-02   -0.13143E-02  3608   0.329E-01    0.272E-01
DAV:  20    -0.260373658891E+03   -0.21127E-02   -0.11591E-03  2848   0.969E-02    0.270E-01
DAV:  21    -0.260373709280E+03   -0.50389E-04   -0.38405E-04  3048   0.475E-02    0.210E-01
DAV:  22    -0.260373135427E+03    0.57385E-03   -0.22470E-03  3664   0.118E-01    0.633E-02
DAV:  23    -0.260373123874E+03    0.11553E-04   -0.25145E-04  3080   0.534E-02    0.147E-02
DAV:  24    -0.260373123766E+03    0.10796E-06   -0.12386E-05  2048   0.951E-03
   1 F= -.26037312E+03 E0= -.26032187E+03  d E =-.102511E+00
 running on   24 total cores
 distrk:  each k-point on    8 cores,    3 groups
 distr:  one band on    8 cores,    1 groups
 using from now: INCAR     
 vasp.5.4.4.18Apr17-6-g9f103f2a35 (build Jun 27 2018 15:25:23) complex          
  
 POSCAR found type information on POSCAR  Ti
 POSCAR found :  1 types and      36 ions
 scaLAPACK will be used

 ----------------------------------------------------------------------------- 
|                                                                             |
|           W    W    AA    RRRRR   N    N  II  N    N   GGGG   !!!           |
|           W    W   A  A   R    R  NN   N  II  NN   N  G    G  !!!           |
|           W    W  A    A  R    R  N N  N  II  N N  N  G       !!!           |
|           W WW W  AAAAAA  RRRRR   N  N N  II  N  N N  G  GGG   !            |
|           WW  WW  A    A  R   R   N   NN  II  N   NN  G    G                |
|           W    W  A    A  R    R  N    N  II  N    N   GGGG   !!!           |
|                                                                             |
|      You have enabled k-point parallelism (KPAR>1).                         |
|      This developmental code was originally  written by Paul Kent at ORNL,  |
|      and carefully double checked in Vienna.                                |
|      GW as well as linear response parallelism added by Martijn Marsman     |
|      and Georg Kresse.                                                      |
|      Carefully verify results versus KPAR=1.                                |
|      Report problems to Paul Kent and Vienna.                               |
|                                                                             |
 ----------------------------------------------------------------------------- 

 LDA part: xc-table for Pade appr. of Perdew
 POSCAR found type information on POSCAR  Ti
 POSCAR found :  1 types and      36 ions
 POSCAR, INCAR and KPOINTS ok, starting setup
 FFT: planning ...
 WAVECAR not read
 WARNING: random wavefunctions but no delay for mixing, default for NELMDL
 entering main loop
       N       E                     dE             d eps       ncg     rms          rms(c)
DAV:   1     0.708697203702E+03    0.70870E+03   -0.41259E+04  2184   0.112E+03
DAV:   2    -0.184562385877E+03   -0.89326E+03   -0.85898E+03  2184   0.250E+02
DAV:   3    -0.320275268560E+03   -0.13571E+03   -0.12741E+03  3328   0.900E+01
DAV:   4    -0.330613967247E+03   -0.10339E+02   -0.96254E+01  3264   0.283E+01
DAV:   5    -0.331134037401E+03   -0.52007E+00   -0.50520E+00  3376   0.571E+00    0.781E+01
DAV:   6    -0.515586439179E+03   -0.18445E+03   -0.31362E+03  4078   0.103E+02    0.101E+02
DAV:   7    -0.275256518247E+03    0.24033E+03   -0.36864E+03  3796   0.173E+02    0.318E+01
DAV:   8    -0.288697998688E+03   -0.13441E+02   -0.61188E+02  3340   0.771E+01    0.410E+01
DAV:   9    -0.266579767051E+03    0.22118E+02   -0.14073E+02  3285   0.403E+01    0.277E+01
DAV:  10    -0.261035985450E+03    0.55438E+01   -0.17435E+01  3568   0.100E+01    0.198E+01
DAV:  11    -0.260764679670E+03    0.27131E+00   -0.37689E+00  3301   0.514E+00    0.186E+01
DAV:  12    -0.258967979084E+03    0.17967E+01   -0.13131E+01  3304   0.111E+01    0.139E+01
DAV:  13    -0.256166063278E+03    0.28019E+01   -0.15371E+01  3616   0.102E+01    0.504E+00
DAV:  14    -0.256031609180E+03    0.13445E+00   -0.17771E+00  3544   0.341E+00    0.355E+00
DAV:  15    -0.256406908873E+03   -0.37530E+00   -0.24036E+00  3488   0.402E+00    0.618E+00
DAV:  16    -0.255845451844E+03    0.56146E+00   -0.19122E+00  3336   0.365E+00    0.222E+00
DAV:  17    -0.255810066949E+03    0.35385E-01   -0.10043E+00  3480   0.309E+00    0.173E+00
DAV:  18    -0.255792544596E+03    0.17522E-01   -0.36026E-01  3352   0.160E+00    0.104E+00
DAV:  19    -0.255785562019E+03    0.69826E-02   -0.79948E-02  3632   0.975E-01    0.373E-01
DAV:  20    -0.255787988916E+03   -0.24269E-02   -0.26916E-02  3352   0.423E-01    0.251E-01
DAV:  21    -0.255790938952E+03   -0.29500E-02   -0.44983E-03  2912   0.206E-01    0.180E-01
DAV:  22    -0.255795147730E+03   -0.42088E-02   -0.10397E-02  3368   0.273E-01    0.204E-01
DAV:  23    -0.255796237499E+03   -0.10898E-02   -0.30010E-03  3216   0.174E-01    0.711E-02
DAV:  24    -0.255796766177E+03   -0.52868E-03   -0.95016E-04  3440   0.925E-02    0.973E-02
DAV:  25    -0.255796672216E+03    0.93961E-04   -0.60063E-04  3256   0.736E-02    0.218E-02
DAV:  26    -0.255796672639E+03   -0.42307E-06   -0.41225E-05  2736   0.172E-02
   1 F= -.25579667E+03 E0= -.25572787E+03  d E =-.137596E+00
 running on   24 total cores
 distrk:  each k-point on    8 cores,    3 groups
 distr:  one band on    8 cores,    1 groups
 using from now: INCAR     
 vasp.5.4.4.18Apr17-6-g9f103f2a35 (build Jun 27 2018 15:25:23) complex          
  
 POSCAR found type information on POSCAR  Ti
 POSCAR found :  1 types and      72 ions
 scaLAPACK will be used

 ----------------------------------------------------------------------------- 
|                                                                             |
|           W    W    AA    RRRRR   N    N  II  N    N   GGGG   !!!           |
|           W    W   A  A   R    R  NN   N  II  NN   N  G    G  !!!           |
|           W    W  A    A  R    R  N N  N  II  N N  N  G       !!!           |
|           W WW W  AAAAAA  RRRRR   N  N N  II  N  N N  G  GGG   !            |
|           WW  WW  A    A  R   R   N   NN  II  N   NN  G    G                |
|           W    W  A    A  R    R  N    N  II  N    N   GGGG   !!!           |
|                                                                             |
|      You have enabled k-point parallelism (KPAR>1).                         |
|      This developmental code was originally  written by Paul Kent at ORNL,  |
|      and carefully double checked in Vienna.                                |
|      GW as well as linear response parallelism added by Martijn Marsman     |
|      and Georg Kresse.                                                      |
|      Carefully verify results versus KPAR=1.                                |
|      Report problems to Paul Kent and Vienna.                               |
|                                                                             |
 ----------------------------------------------------------------------------- 

 LDA part: xc-table for Pade appr. of Perdew
 POSCAR found type information on POSCAR  Ti
 POSCAR found :  1 types and      72 ions
 POSCAR, INCAR and KPOINTS ok, starting setup
 FFT: planning ...
 WAVECAR not read
 WARNING: random wavefunctions but no delay for mixing, default for NELMDL
 entering main loop
       N       E                     dE             d eps       ncg     rms          rms(c)
DAV:   1     0.123901909106E+04    0.12390E+04   -0.82690E+04  4344   0.124E+03
DAV:   2    -0.369441735621E+03   -0.16085E+04   -0.15622E+04  4344   0.277E+02
DAV:   3    -0.604271986238E+03   -0.23483E+03   -0.21786E+03  6328   0.962E+01
DAV:   4    -0.624036416324E+03   -0.19764E+02   -0.18366E+02  6520   0.281E+01
DAV:   5    -0.624898801887E+03   -0.86239E+00   -0.83305E+00  6400   0.466E+00    0.106E+02
DAV:   6    -0.927217977344E+03   -0.30232E+03   -0.29596E+03  8206   0.103E+02    0.967E+01
DAV:   7    -0.742552468913E+03    0.18467E+03   -0.67602E+03  8042   0.136E+02    0.705E+01
DAV:   8    -0.569815106224E+03    0.17274E+03   -0.15670E+03  7344   0.104E+02    0.565E+01
DAV:   9    -0.552731378967E+03    0.17084E+02   -0.64688E+02  7184   0.633E+01    0.362E+01
DAV:  10    -0.549851553432E+03    0.28798E+01   -0.10034E+02  6872   0.195E+01    0.267E+01
DAV:  11    -0.548089173490E+03    0.17624E+01   -0.68658E+00  6840   0.528E+00    0.234E+01
DAV:  12    -0.547121089030E+03    0.96808E+00   -0.15385E+00  6688   0.296E+00    0.212E+01
DAV:  13    -0.544587203259E+03    0.25339E+01   -0.41093E+00  6912   0.489E+00    0.155E+01
DAV:  14    -0.542570383880E+03    0.20168E+01   -0.60266E+00  5608   0.666E+00    0.754E+00
DAV:  15    -0.542057209168E+03    0.51317E+00   -0.17363E+00  5920   0.367E+00    0.432E+00
DAV:  16    -0.542035995851E+03    0.21213E-01   -0.43759E-01  6480   0.167E+00    0.399E+00
DAV:  17    -0.541995540682E+03    0.40455E-01   -0.30630E-01  6544   0.136E+00    0.332E+00
DAV:  18    -0.541927347775E+03    0.68193E-01   -0.58189E-01  6688   0.171E+00    0.241E+00
DAV:  19    -0.541882425606E+03    0.44922E-01   -0.94052E-01  6912   0.235E+00    0.164E+00
DAV:  20    -0.541868309437E+03    0.14116E-01   -0.13897E-01  6472   0.945E-01    0.135E+00
DAV:  21    -0.541849686577E+03    0.18623E-01   -0.34257E-02  6752   0.475E-01    0.807E-01
DAV:  22    -0.541845137018E+03    0.45496E-02   -0.17337E-02  6888   0.279E-01    0.516E-01
DAV:  23    -0.541843079426E+03    0.20576E-02   -0.10802E-02  6800   0.225E-01    0.298E-01
DAV:  24    -0.541842469125E+03    0.61030E-03   -0.62239E-03  6736   0.175E-01    0.181E-01
DAV:  25    -0.541842145370E+03    0.32375E-03   -0.29096E-03  6656   0.119E-01    0.984E-02
DAV:  26    -0.541842022160E+03    0.12321E-03   -0.81939E-04  6680   0.708E-02    0.467E-02
DAV:  27    -0.541842028425E+03   -0.62651E-05   -0.37062E-04  5936   0.515E-02    0.638E-02
DAV:  28    -0.541842013410E+03    0.15015E-04   -0.11612E-04  6352   0.262E-02    0.417E-02
DAV:  29    -0.541842011916E+03    0.14935E-05   -0.17693E-05  3904   0.112E-02
   1 F= -.54184201E+03 E0= -.54175819E+03  d E =-.167654E+00
Distance=1.800
 running on   24 total cores
 distrk:  each k-point on    8 cores,    3 groups
 distr:  one band on    8 cores,    1 groups
 using from now: INCAR     
 vasp.5.4.4.18Apr17-6-g9f103f2a35 (build Jun 27 2018 15:25:23) complex          
  
 POSCAR found type information on POSCAR  Ti
 POSCAR found :  1 types and      36 ions
 scaLAPACK will be used

 ----------------------------------------------------------------------------- 
|                                                                             |
|           W    W    AA    RRRRR   N    N  II  N    N   GGGG   !!!           |
|           W    W   A  A   R    R  NN   N  II  NN   N  G    G  !!!           |
|           W    W  A    A  R    R  N N  N  II  N N  N  G       !!!           |
|           W WW W  AAAAAA  RRRRR   N  N N  II  N  N N  G  GGG   !            |
|           WW  WW  A    A  R   R   N   NN  II  N   NN  G    G                |
|           W    W  A    A  R    R  N    N  II  N    N   GGGG   !!!           |
|                                                                             |
|      You have enabled k-point parallelism (KPAR>1).                         |
|      This developmental code was originally  written by Paul Kent at ORNL,  |
|      and carefully double checked in Vienna.                                |
|      GW as well as linear response parallelism added by Martijn Marsman     |
|      and Georg Kresse.                                                      |
|      Carefully verify results versus KPAR=1.                                |
|      Report problems to Paul Kent and Vienna.                               |
|                                                                             |
 ----------------------------------------------------------------------------- 

 LDA part: xc-table for Pade appr. of Perdew
 POSCAR found type information on POSCAR  Ti
 POSCAR found :  1 types and      36 ions
 POSCAR, INCAR and KPOINTS ok, starting setup
 FFT: planning ...
 WAVECAR not read
 entering main loop
       N       E                     dE             d eps       ncg     rms          rms(c)
DAV:   1     0.654169307454E+03    0.65417E+03   -0.40558E+04  2184   0.112E+03
DAV:   2    -0.184527818822E+03   -0.83870E+03   -0.81081E+03  2184   0.246E+02
DAV:   3    -0.309081206544E+03   -0.12455E+03   -0.11824E+03  3480   0.846E+01
DAV:   4    -0.319757154594E+03   -0.10676E+02   -0.10161E+02  3472   0.264E+01
DAV:   5    -0.320458475951E+03   -0.70132E+00   -0.67004E+00  3560   0.549E+00    0.693E+01
DAV:   6    -0.450590390862E+03   -0.13013E+03   -0.21761E+03  3916   0.986E+01    0.704E+01
DAV:   7    -0.277470054676E+03    0.17312E+03   -0.19205E+03  4076   0.103E+02    0.396E+01
DAV:   8    -0.265994390754E+03    0.11476E+02   -0.60334E+02  3666   0.684E+01    0.220E+01
DAV:   9    -0.269231012417E+03   -0.32366E+01   -0.54922E+01  3672   0.169E+01    0.221E+01
DAV:  10    -0.272941659366E+03   -0.37106E+01   -0.51540E+00  3488   0.562E+00    0.260E+01
DAV:  11    -0.261501382753E+03    0.11440E+02   -0.24898E+01  3176   0.181E+01    0.833E+00
DAV:  12    -0.260774101854E+03    0.72728E+00   -0.11853E+01  3768   0.961E+00    0.534E+00
DAV:  13    -0.260424894964E+03    0.34921E+00   -0.24561E+00  3552   0.464E+00    0.412E+00
DAV:  14    -0.260574040714E+03   -0.14915E+00   -0.69077E-01  3488   0.234E+00    0.381E+00
DAV:  15    -0.260438140306E+03    0.13590E+00   -0.13617E-01  3368   0.853E-01    0.255E+00
DAV:  16    -0.260376873381E+03    0.61267E-01   -0.16409E-01  3536   0.651E-01    0.134E+00
DAV:  17    -0.260389237219E+03   -0.12364E-01   -0.20057E-02  3208   0.494E-01    0.123E+00
DAV:  18    -0.260369469663E+03    0.19768E-01   -0.89447E-02  3696   0.760E-01    0.144E-01
DAV:  19    -0.260371577925E+03   -0.21083E-02   -0.14356E-02  3464   0.345E-01    0.264E-01
DAV:  20    -0.260373564859E+03   -0.19869E-02   -0.12897E-03  2984   0.101E-01    0.262E-01
DAV:  21    -0.260373913462E+03   -0.34860E-03   -0.33671E-04  2848   0.503E-02    0.223E-01
DAV:  22    -0.260373271356E+03    0.64211E-03   -0.23576E-03  3648   0.125E-01    0.678E-02
DAV:  23    -0.260373263148E+03    0.82085E-05   -0.32795E-04  3160   0.591E-02    0.140E-02
DAV:  24    -0.260373263547E+03   -0.39895E-06   -0.20465E-05  2248   0.139E-02
   1 F= -.26037326E+03 E0= -.26032201E+03  d E =-.102510E+00
 running on   24 total cores
 distrk:  each k-point on    8 cores,    3 groups
 distr:  one band on    8 cores,    1 groups
 using from now: INCAR     
 vasp.5.4.4.18Apr17-6-g9f103f2a35 (build Jun 27 2018 15:25:23) complex          
  
 POSCAR found type information on POSCAR  Ti
 POSCAR found :  1 types and      36 ions
 scaLAPACK will be used

 ----------------------------------------------------------------------------- 
|                                                                             |
|           W    W    AA    RRRRR   N    N  II  N    N   GGGG   !!!           |
|           W    W   A  A   R    R  NN   N  II  NN   N  G    G  !!!           |
|           W    W  A    A  R    R  N N  N  II  N N  N  G       !!!           |
|           W WW W  AAAAAA  RRRRR   N  N N  II  N  N N  G  GGG   !            |
|           WW  WW  A    A  R   R   N   NN  II  N   NN  G    G                |
|           W    W  A    A  R    R  N    N  II  N    N   GGGG   !!!           |
|                                                                             |
|      You have enabled k-point parallelism (KPAR>1).                         |
|      This developmental code was originally  written by Paul Kent at ORNL,  |
|      and carefully double checked in Vienna.                                |
|      GW as well as linear response parallelism added by Martijn Marsman     |
|      and Georg Kresse.                                                      |
|      Carefully verify results versus KPAR=1.                                |
|      Report problems to Paul Kent and Vienna.                               |
|                                                                             |
 ----------------------------------------------------------------------------- 

 LDA part: xc-table for Pade appr. of Perdew
 POSCAR found type information on POSCAR  Ti
 POSCAR found :  1 types and      36 ions
 POSCAR, INCAR and KPOINTS ok, starting setup
 FFT: planning ...
 WAVECAR not read
 WARNING: random wavefunctions but no delay for mixing, default for NELMDL
 entering main loop
       N       E                     dE             d eps       ncg     rms          rms(c)
DAV:   1     0.706982284004E+03    0.70698E+03   -0.41091E+04  2184   0.112E+03
DAV:   2    -0.184930718418E+03   -0.89191E+03   -0.85766E+03  2184   0.249E+02
DAV:   3    -0.320415174395E+03   -0.13548E+03   -0.12725E+03  3280   0.899E+01
DAV:   4    -0.330636043655E+03   -0.10221E+02   -0.95868E+01  3264   0.285E+01
DAV:   5    -0.331136196691E+03   -0.50015E+00   -0.48800E+00  3408   0.567E+00    0.782E+01
DAV:   6    -0.514962390370E+03   -0.18383E+03   -0.31327E+03  4105   0.102E+02    0.101E+02
DAV:   7    -0.275958785518E+03    0.23900E+03   -0.37088E+03  3836   0.173E+02    0.319E+01
DAV:   8    -0.287533385082E+03   -0.11575E+02   -0.59537E+02  3314   0.768E+01    0.404E+01
DAV:   9    -0.266624186388E+03    0.20909E+02   -0.13383E+02  3324   0.392E+01    0.276E+01
DAV:  10    -0.261642434218E+03    0.49818E+01   -0.15083E+01  3568   0.958E+00    0.209E+01
DAV:  11    -0.260999122391E+03    0.64331E+00   -0.35346E+00  3330   0.517E+00    0.190E+01
DAV:  12    -0.259339025192E+03    0.16601E+01   -0.11847E+01  3376   0.104E+01    0.148E+01
DAV:  13    -0.256211554869E+03    0.31275E+01   -0.15527E+01  3600   0.105E+01    0.530E+00
[...]
DAV:   5    -0.642247461428E+03   -0.80782E+00   -0.78289E+00  6344   0.432E+00    0.103E+02
DAV:   6    -0.113230364506E+04   -0.49006E+03   -0.54381E+03  8404   0.130E+02    0.874E+01
DAV:   7    -0.837384762394E+03    0.29492E+03   -0.76186E+03  8021   0.111E+02    0.101E+02
DAV:   8    -0.538069672518E+03    0.29932E+03   -0.36899E+03  7555   0.141E+02    0.399E+01
DAV:   9    -0.576030295720E+03   -0.37961E+02   -0.93585E+02  7136   0.626E+01    0.406E+01
DAV:  10    -0.564641960875E+03    0.11388E+02   -0.16673E+02  7088   0.286E+01    0.351E+01
DAV:  11    -0.555518197221E+03    0.91238E+01   -0.21870E+01  7032   0.892E+00    0.293E+01
DAV:  12    -0.544597572083E+03    0.10921E+02   -0.24702E+01  7104   0.108E+01    0.177E+01
DAV:  13    -0.541709581285E+03    0.28880E+01   -0.21472E+01  6992   0.980E+00    0.944E+00
DAV:  14    -0.541439894514E+03    0.26969E+00   -0.12957E+00  6376   0.235E+00    0.848E+00
DAV:  15    -0.541226258690E+03    0.21364E+00   -0.15336E-01  7248   0.677E-01    0.793E+00
DAV:  16    -0.541947076032E+03   -0.72082E+00   -0.32651E+00  6688   0.362E+00    0.102E+01
DAV:  17    -0.540898404994E+03    0.10487E+01   -0.24040E+00  6688   0.338E+00    0.743E+00
DAV:  18    -0.540299998303E+03    0.59841E+00   -0.23552E+00  7064   0.297E+00    0.564E+00
DAV:  19    -0.540112243236E+03    0.18776E+00   -0.66245E-01  6656   0.178E+00    0.454E+00
DAV:  20    -0.540075379485E+03    0.36864E-01   -0.35097E-01  6592   0.128E+00    0.408E+00
DAV:  21    -0.540062140131E+03    0.13239E-01   -0.24798E-01  6904   0.949E-01    0.366E+00
DAV:  22    -0.539996182303E+03    0.65958E-01   -0.11211E-01  6496   0.789E-01    0.288E+00
DAV:  23    -0.539900007859E+03    0.96174E-01   -0.23570E-01  6792   0.120E+00    0.178E+00
DAV:  24    -0.539879329093E+03    0.20679E-01   -0.65032E-02  6472   0.600E-01    0.131E+00
DAV:  25    -0.539876361152E+03    0.29679E-02   -0.12282E-02  6832   0.226E-01    0.115E+00
DAV:  26    -0.539870141798E+03    0.62194E-02   -0.15780E-02  6808   0.252E-01    0.865E-01
DAV:  27    -0.539864188762E+03    0.59530E-02   -0.21127E-02  6880   0.344E-01    0.662E-01
DAV:  28    -0.539862009762E+03    0.21790E-02   -0.98994E-03  6944   0.204E-01    0.528E-01
DAV:  29    -0.539859143649E+03    0.28661E-02   -0.13002E-02  6704   0.224E-01    0.193E-01
DAV:  30    -0.539859377195E+03   -0.23355E-03   -0.13370E-03  6672   0.725E-02    0.228E-01
DAV:  31    -0.539859255663E+03    0.12153E-03   -0.21468E-04  6640   0.292E-02    0.199E-01
DAV:  32    -0.539859002205E+03    0.25346E-03   -0.77166E-04  6800   0.543E-02    0.926E-02
DAV:  33    -0.539858968287E+03    0.33917E-04   -0.22494E-04  7040   0.292E-02    0.496E-02
DAV:  34    -0.539858967374E+03    0.91308E-06   -0.67794E-05  6024   0.198E-02    0.403E-02
DAV:  35    -0.539858952587E+03    0.14787E-04   -0.52174E-05  5768   0.144E-02    0.162E-02
DAV:  36    -0.539858950739E+03    0.18481E-05   -0.48128E-06  2824   0.632E-03
   1 F= -.53985895E+03 E0= -.53976875E+03  d E =-.180397E+00
Distance=2.500
 running on   24 total cores
 distrk:  each k-point on    8 cores,    3 groups
 distr:  one band on    8 cores,    1 groups
 using from now: INCAR     
 vasp.5.4.4.18Apr17-6-g9f103f2a35 (build Jun 27 2018 15:25:23) complex          
  
 POSCAR found type information on POSCAR  Ti
 POSCAR found :  1 types and      36 ions
 scaLAPACK will be used

 ----------------------------------------------------------------------------- 
|                                                                             |
|           W    W    AA    RRRRR   N    N  II  N    N   GGGG   !!!           |
|           W    W   A  A   R    R  NN   N  II  NN   N  G    G  !!!           |
|           W    W  A    A  R    R  N N  N  II  N N  N  G       !!!           |
|           W WW W  AAAAAA  RRRRR   N  N N  II  N  N N  G  GGG   !            |
|           WW  WW  A    A  R   R   N   NN  II  N   NN  G    G                |
|           W    W  A    A  R    R  N    N  II  N    N   GGGG   !!!           |
|                                                                             |
|      You have enabled k-point parallelism (KPAR>1).                         |
|      This developmental code was originally  written by Paul Kent at ORNL,  |
|      and carefully double checked in Vienna.                                |
|      GW as well as linear response parallelism added by Martijn Marsman     |
|      and Georg Kresse.                                                      |
|      Carefully verify results versus KPAR=1.                                |
|      Report problems to Paul Kent and Vienna.                               |
|                                                                             |
 ----------------------------------------------------------------------------- 

 LDA part: xc-table for Pade appr. of Perdew
 POSCAR found type information on POSCAR  Ti
 POSCAR found :  1 types and      36 ions
 POSCAR, INCAR and KPOINTS ok, starting setup
 FFT: planning ...
 WAVECAR not read
 entering main loop
       N       E                     dE             d eps       ncg     rms          rms(c)
DAV:   1     0.665544963990E+03    0.66554E+03   -0.40436E+04  2184   0.110E+03
DAV:   2    -0.183190467678E+03   -0.84874E+03   -0.81969E+03  2184   0.245E+02
DAV:   3    -0.308986562602E+03   -0.12580E+03   -0.11940E+03  3552   0.836E+01
DAV:   4    -0.319676489096E+03   -0.10690E+02   -0.10174E+02  3432   0.264E+01
DAV:   5    -0.320448463824E+03   -0.77197E+00   -0.73197E+00  3616   0.570E+00    0.692E+01
DAV:   6    -0.445856868577E+03   -0.12541E+03   -0.20925E+03  3804   0.976E+01    0.704E+01
DAV:   7    -0.283619446769E+03    0.16224E+03   -0.20160E+03  4081   0.103E+02    0.418E+01
DAV:   8    -0.265810759886E+03    0.17809E+02   -0.63141E+02  3639   0.703E+01    0.221E+01
DAV:   9    -0.269192221189E+03   -0.33815E+01   -0.59172E+01  3704   0.173E+01    0.220E+01
DAV:  10    -0.272739414756E+03   -0.35472E+01   -0.51699E+00  3552   0.571E+00    0.259E+01
DAV:  11    -0.261797419592E+03    0.10942E+02   -0.21570E+01  3128   0.171E+01    0.916E+00
DAV:  12    -0.260815913248E+03    0.98151E+00   -0.13593E+01  3728   0.108E+01    0.539E+00
DAV:  13    -0.260410995559E+03    0.40492E+00   -0.29651E+00  3576   0.496E+00    0.375E+00
DAV:  14    -0.260570997833E+03   -0.16000E+00   -0.83081E-01  3512   0.244E+00    0.369E+00
DAV:  15    -0.260448835154E+03    0.12216E+00   -0.12557E-01  3240   0.866E-01    0.253E+00
DAV:  16    -0.260382792219E+03    0.66043E-01   -0.16553E-01  3448   0.651E-01    0.138E+00
DAV:  17    -0.260385356486E+03   -0.25643E-02   -0.15962E-02  3120   0.456E-01    0.110E+00
DAV:  18    -0.260369566478E+03    0.15790E-01   -0.57561E-02  3696   0.614E-01    0.195E-01
DAV:  19    -0.260370578541E+03   -0.10121E-02   -0.14085E-02  3538   0.358E-01    0.229E-01
DAV:  20    -0.260372819477E+03   -0.22409E-02   -0.12987E-03  3504   0.832E-02    0.252E-01
DAV:  21    -0.260373721952E+03   -0.90247E-03   -0.71168E-04  2732   0.935E-02    0.263E-01
DAV:  22    -0.260372989517E+03    0.73243E-03   -0.47464E-03  3640   0.190E-01    0.490E-02
DAV:  23    -0.260373099125E+03   -0.10961E-03   -0.43956E-04  3152   0.681E-02    0.375E-02
DAV:  24    -0.260373110878E+03   -0.11753E-04   -0.48262E-05  2912   0.235E-02    0.205E-02
DAV:  25    -0.260373115218E+03   -0.43407E-05   -0.12567E-05  2160   0.820E-03
   1 F= -.26037312E+03 E0= -.26032185E+03  d E =-.102524E+00
 running on   24 total cores
 distrk:  each k-point on    8 cores,    3 groups
 distr:  one band on    8 cores,    1 groups
 using from now: INCAR     
 vasp.5.4.4.18Apr17-6-g9f103f2a35 (build Jun 27 2018 15:25:23) complex          
  
 POSCAR found type information on POSCAR  Ti
 POSCAR found :  1 types and      36 ions
 scaLAPACK will be used

 ----------------------------------------------------------------------------- 
|                                                                             |
|           W    W    AA    RRRRR   N    N  II  N    N   GGGG   !!!           |
|           W    W   A  A   R    R  NN   N  II  NN   N  G    G  !!!           |
|           W    W  A    A  R    R  N N  N  II  N N  N  G       !!!           |
|           W WW W  AAAAAA  RRRRR   N  N N  II  N  N N  G  GGG   !            |
|           WW  WW  A    A  R   R   N   NN  II  N   NN  G    G                |
|           W    W  A    A  R    R  N    N  II  N    N   GGGG   !!!           |
|                                                                             |
|      You have enabled k-point parallelism (KPAR>1).                         |
|      This developmental code was originally  written by Paul Kent at ORNL,  |
|      and carefully double checked in Vienna.                                |
|      GW as well as linear response parallelism added by Martijn Marsman     |
|      and Georg Kresse.                                                      |
|      Carefully verify results versus KPAR=1.                                |
|      Report problems to Paul Kent and Vienna.                               |
|                                                                             |
 ----------------------------------------------------------------------------- 

 LDA part: xc-table for Pade appr. of Perdew
 POSCAR found type information on POSCAR  Ti
 POSCAR found :  1 types and      36 ions
 POSCAR, INCAR and KPOINTS ok, starting setup
 FFT: planning ...
 WAVECAR not read
 WARNING: random wavefunctions but no delay for mixing, default for NELMDL
 entering main loop
       N       E                     dE             d eps       ncg     rms          rms(c)
DAV:   1     0.718854203311E+03    0.71885E+03   -0.40989E+04  2184   0.111E+03
DAV:   2    -0.184297573707E+03   -0.90315E+03   -0.86884E+03  2184   0.248E+02
DAV:   3    -0.320201912271E+03   -0.13590E+03   -0.12771E+03  3312   0.890E+01
DAV:   4    -0.330624960369E+03   -0.10423E+02   -0.97150E+01  3280   0.287E+01
DAV:   5    -0.331135943464E+03   -0.51098E+00   -0.50086E+00  3408   0.581E+00    0.782E+01
DAV:   6    -0.509009290158E+03   -0.17787E+03   -0.30581E+03  4115   0.101E+02    0.100E+02
DAV:   7    -0.279075741648E+03    0.22993E+03   -0.37872E+03  3804   0.175E+02    0.325E+01
DAV:   8    -0.286184228062E+03   -0.71085E+01   -0.58423E+02  3293   0.772E+01    0.396E+01
DAV:   9    -0.267232442726E+03    0.18952E+02   -0.11602E+02  3351   0.361E+01    0.280E+01
DAV:  10    -0.263670775324E+03    0.35617E+01   -0.10638E+01  3520   0.833E+00    0.238E+01
DAV:  11    -0.262186442415E+03    0.14843E+01   -0.23959E+00  3546   0.439E+00    0.210E+01
DAV:  12    -0.260083179123E+03    0.21033E+01   -0.99554E+00  3328   0.955E+00    0.167E+01
DAV:  13    -0.256258890055E+03    0.38243E+01   -0.18779E+01  3584   0.118E+01    0.578E+00
DAV:  14    -0.256033440388E+03    0.22545E+00   -0.23097E+00  3528   0.387E+00    0.379E+00
DAV:  15    -0.256270911718E+03   -0.23747E+00   -0.13372E+00  3424   0.319E+00    0.533E+00
DAV:  16    -0.255885167533E+03    0.38574E+00   -0.18375E+00  3512   0.342E+00    0.247E+00
DAV:  17    -0.255807733452E+03    0.77434E-01   -0.79614E-01  3392   0.289E+00    0.118E+00
DAV:  18    -0.255798301712E+03    0.94317E-02   -0.13972E-01  3312   0.104E+00    0.971E-01
DAV:  19    -0.255790694479E+03    0.76072E-02   -0.10450E-01  3392   0.107E+00    0.368E-01
DAV:  20    -0.255792835572E+03   -0.21411E-02   -0.63227E-02  3384   0.624E-01    0.573E-01
DAV:  21    -0.255792446163E+03    0.38941E-03   -0.69306E-02  3304   0.728E-01    0.484E-01
DAV:  22    -0.255792357270E+03    0.88893E-04   -0.16720E-02  3256   0.369E-01    0.584E-02
DAV:  23    -0.255794721664E+03   -0.23644E-02   -0.26040E-03  3544   0.132E-01    0.179E-01
DAV:  24    -0.255795966211E+03   -0.12445E-02   -0.54516E-03  3352   0.196E-01    0.137E-01
DAV:  25    -0.255796362534E+03   -0.39632E-03   -0.74109E-04  3168   0.766E-02    0.684E-02
DAV:  26    -0.255796546617E+03   -0.18408E-03   -0.46674E-04  3408   0.563E-02    0.290E-02
DAV:  27    -0.255796586125E+03   -0.39507E-04   -0.53115E-05  2984   0.214E-02    0.143E-02
DAV:  28    -0.255796595049E+03   -0.89241E-05   -0.51864E-06  1640   0.768E-03    0.158E-02
DAV:  29    -0.255796593617E+03    0.14321E-05   -0.26639E-06  1536   0.671E-03
   1 F= -.25579659E+03 E0= -.25572782E+03  d E =-.137541E+00
 running on   24 total cores
 distrk:  each k-point on    8 cores,    3 groups
 distr:  one band on    8 cores,    1 groups
 using from now: INCAR     
 vasp.5.4.4.18Apr17-6-g9f103f2a35 (build Jun 27 2018 15:25:23) complex          
  
 POSCAR found type information on POSCAR  Ti
 POSCAR found :  1 types and      72 ions
 scaLAPACK will be used

 ----------------------------------------------------------------------------- 
|                                                                             |
|           W    W    AA    RRRRR   N    N  II  N    N   GGGG   !!!           |
|           W    W   A  A   R    R  NN   N  II  NN   N  G    G  !!!           |
|           W    W  A    A  R    R  N N  N  II  N N  N  G       !!!           |
|           W WW W  AAAAAA  RRRRR   N  N N  II  N  N N  G  GGG   !            |
|           WW  WW  A    A  R   R   N   NN  II  N   NN  G    G                |
|           W    W  A    A  R    R  N    N  II  N    N   GGGG   !!!           |
|                                                                             |
|      You have enabled k-point parallelism (KPAR>1).                         |
|      This developmental code was originally  written by Paul Kent at ORNL,  |
|      and carefully double checked in Vienna.                                |
|      GW as well as linear response parallelism added by Martijn Marsman     |
|      and Georg Kresse.                                                      |
|      Carefully verify results versus KPAR=1.                                |
|      Report problems to Paul Kent and Vienna.                               |
|                                                                             |
 ----------------------------------------------------------------------------- 

 LDA part: xc-table for Pade appr. of Perdew
 POSCAR found type information on POSCAR  Ti
 POSCAR found :  1 types and      72 ions
 POSCAR, INCAR and KPOINTS ok, starting setup
 FFT: planning ...
 WAVECAR not read
 WARNING: random wavefunctions but no delay for mixing, default for NELMDL
 entering main loop
       N       E                     dE             d eps       ncg     rms          rms(c)
DAV:   1     0.118476879565E+04    0.11848E+04   -0.82291E+04  4344   0.123E+03
DAV:   2    -0.384820040933E+03   -0.15696E+04   -0.15243E+04  4344   0.272E+02
DAV:   3    -0.623271452378E+03   -0.23845E+03   -0.22285E+03  6600   0.939E+01
DAV:   4    -0.642554535861E+03   -0.19283E+02   -0.18328E+02  6512   0.277E+01
DAV:   5    -0.643335300193E+03   -0.78076E+00   -0.75769E+00  6312   0.421E+00    0.103E+02
DAV:   6    -0.114621193750E+04   -0.50288E+03   -0.56357E+03  8372   0.131E+02    0.883E+01
DAV:   7    -0.845733703303E+03    0.30048E+03   -0.78054E+03  7989   0.110E+02    0.104E+02
DAV:   8    -0.535682259527E+03    0.31005E+03   -0.38109E+03  7592   0.143E+02    0.396E+01
DAV:   9    -0.578142220856E+03   -0.42460E+02   -0.96010E+02  7144   0.627E+01    0.419E+01
DAV:  10    -0.564826388646E+03    0.13316E+02   -0.17932E+02  7112   0.302E+01    0.352E+01
DAV:  11    -0.555191559199E+03    0.96348E+01   -0.23190E+01  7064   0.919E+00    0.293E+01
DAV:  12    -0.544364830302E+03    0.10827E+02   -0.26391E+01  7120   0.109E+01    0.180E+01
DAV:  13    -0.541335201143E+03    0.30296E+01   -0.23773E+01  6992   0.101E+01    0.975E+00
DAV:  14    -0.541235821653E+03    0.99379E-01   -0.14098E+00  6432   0.230E+00    0.923E+00
DAV:  15    -0.541775236242E+03   -0.53941E+00   -0.35095E-01  7064   0.118E+00    0.105E+01
DAV:  16    -0.542703631960E+03   -0.92840E+00   -0.31310E+00  6856   0.347E+00    0.129E+01
DAV:  17    -0.541206689211E+03    0.14969E+01   -0.30121E+00  6608   0.366E+00    0.986E+00
DAV:  18    -0.539970778360E+03    0.12359E+01   -0.28091E+00  7080   0.322E+00    0.646E+00
DAV:  19    -0.539641028352E+03    0.32975E+00   -0.14184E+00  7080   0.246E+00    0.549E+00
DAV:  20    -0.539550784394E+03    0.90244E-01   -0.36717E-01  6440   0.142E+00    0.498E+00
DAV:  21    -0.539507269494E+03    0.43515E-01   -0.19948E-01  6560   0.979E-01    0.438E+00
DAV:  22    -0.539463749066E+03    0.43520E-01   -0.10182E-01  6704   0.733E-01    0.370E+00
DAV:  23    -0.539427101644E+03    0.36647E-01   -0.82171E-02  6736   0.662E-01    0.322E+00
DAV:  24    -0.539397917500E+03    0.29184E-01   -0.72412E-02  5864   0.699E-01    0.266E+00
DAV:  25    -0.539386808072E+03    0.11109E-01   -0.32948E-02  6664   0.404E-01    0.230E+00
DAV:  26    -0.539372414757E+03    0.14393E-01   -0.17688E-02  6360   0.280E-01    0.183E+00
DAV:  27    -0.539358070668E+03    0.14344E-01   -0.17910E-02  6928   0.275E-01    0.129E+00
DAV:  28    -0.539346759451E+03    0.11311E-01   -0.21522E-02  6504   0.337E-01    0.670E-01
DAV:  29    -0.539343691607E+03    0.30678E-02   -0.75692E-03  6888   0.168E-01    0.334E-01
DAV:  30    -0.539342458147E+03    0.12335E-02   -0.45761E-03  6880   0.135E-01    0.131E-01
DAV:  31    -0.539342622291E+03   -0.16414E-03   -0.35895E-03  7080   0.109E-01    0.191E-01
DAV:  32    -0.539342598103E+03    0.24188E-04   -0.65771E-04  6424   0.657E-02    0.180E-01
DAV:  33    -0.539342264850E+03    0.33325E-03   -0.75893E-04  7016   0.523E-02    0.771E-02
DAV:  34    -0.539342229041E+03    0.35809E-04   -0.25919E-04  6824   0.294E-02    0.390E-02
DAV:  35    -0.539342228517E+03    0.52444E-06   -0.11192E-04  6872   0.219E-02    0.385E-02
DAV:  36    -0.539342213418E+03    0.15099E-04   -0.71868E-05  6136   0.196E-02    0.152E-02
DAV:  37    -0.539342213160E+03    0.25816E-06   -0.65648E-06  2880   0.777E-03
   1 F= -.53934221E+03 E0= -.53925154E+03  d E =-.181342E+00

DISTANCE=1.550
E_alpha= -260.374038  E_beta= -255.796668  E_total= -537.958186 
W_seq=-21.787480

DISTANCE=1.600
E_alpha= -260.373712  E_beta= -255.796630  E_total= -539.378769 
W_seq=-23.208427

DISTANCE=1.650
E_alpha= -260.373245  E_beta= -255.796677  E_total= -540.457062 
W_seq=-24.287140

DISTANCE=1.700
E_alpha= -260.373198  E_beta= -255.796926  E_total= -541.260082 
W_seq=-25.089958

DISTANCE=1.750
E_alpha= -260.373124  E_beta= -255.796673  E_total= -541.842012 
W_seq=-25.672215

DISTANCE=1.800
E_alpha= -260.373264  E_beta= -255.796838  E_total= -542.247565 
W_seq=-26.077463

DISTANCE=1.850
E_alpha= -260.373903  E_beta= -255.796801  E_total= -542.510589 
W_seq=-26.339885

DISTANCE=1.900
E_alpha= -260.373691  E_beta= -255.796606  E_total= -542.656675 
W_seq=-26.486378

DISTANCE=1.950
E_alpha= -260.373010  E_beta= -255.796730  E_total= -542.706354 
W_seq=-26.536614

DISTANCE=2.000
E_alpha= -260.373052  E_beta= -255.796788  E_total= -542.673868 
W_seq=-26.504028

DISTANCE=2.050
E_alpha= -260.372989  E_beta= -255.796902  E_total= -542.569827 
W_seq=-26.399936

DISTANCE=2.100
E_alpha= -260.372989  E_beta= -255.796668  E_total= -542.401560 
W_seq=-26.231903

DISTANCE=2.150
E_alpha= -260.373852  E_beta= -255.796589  E_total= -542.177377 
W_seq=-26.006936

DISTANCE=2.200
E_alpha= -260.373126  E_beta= -255.796837  E_total= -541.899621 
W_seq=-25.729658

DISTANCE=2.250
E_alpha= -260.372879  E_beta= -255.796851  E_total= -541.574437 
W_seq=-25.404707

DISTANCE=2.300
E_alpha= -260.373084  E_beta= -255.796612  E_total= -541.204652 
W_seq=-25.034956

DISTANCE=2.350
E_alpha= -260.373213  E_beta= -255.796623  E_total= -540.793488 
W_seq=-24.623652

DISTANCE=2.400
E_alpha= -260.372888  E_beta= -255.796856  E_total= -540.343800 
W_seq=-24.174056

DISTANCE=2.450
E_alpha= -260.373029  E_beta= -255.796792  E_total= -539.858951 
W_seq=-23.689130

DISTANCE=2.500
E_alpha= -260.373115  E_beta= -255.796594  E_total= -539.342213 
W_seq=-23.172504

