Distance=2.050
 running on   16 total cores
 distrk:  each k-point on    8 cores,    2 groups
 distr:  one band on    4 cores,    2 groups
 using from now: INCAR     
 vasp.5.4.4.18Apr17-6-g9f103f2a35 (build Nov 27 2019 20:08:17) complex          
  
 POSCAR found type information on POSCAR  Ti
 POSCAR found :  1 types and      48 ions
 scaLAPACK will be used

 ----------------------------------------------------------------------------- 
|                                                                             |
|           W    W    AA    RRRRR   N    N  II  N    N   GGGG   !!!           |
|           W    W   A  A   R    R  NN   N  II  NN   N  G    G  !!!           |
|           W    W  A    A  R    R  N N  N  II  N N  N  G       !!!           |
|           W WW W  AAAAAA  RRRRR   N  N N  II  N  N N  G  GGG   !            |
|           WW  WW  A    A  R   R   N   NN  II  N   NN  G    G                |
|           W    W  A    A  R    R  N    N  II  N    N   GGGG   !!!           |
|                                                                             |
|      You have enabled k-point parallelism (KPAR>1).                         |
|      This developmental code was originally  written by Paul Kent at ORNL,  |
|      and carefully double checked in Vienna.                                |
|      GW as well as linear response parallelism added by Martijn Marsman     |
|      and Georg Kresse.                                                      |
|      Carefully verify results versus KPAR=1.                                |
|      Report problems to Paul Kent and Vienna.                               |
|                                                                             |
 ----------------------------------------------------------------------------- 

 LDA part: xc-table for Pade appr. of Perdew
 POSCAR found type information on POSCAR  Ti
 POSCAR found :  1 types and      48 ions
 POSCAR, INCAR and KPOINTS ok, starting setup
 FFT: planning ...
 WAVECAR not read
 entering main loop
       N       E                     dE             d eps       ncg     rms          rms(c)
DAV:   1     0.891083663623E+03    0.89108E+03   -0.54978E+04  4880   0.114E+03
DAV:   2    -0.247546922016E+03   -0.11386E+04   -0.11000E+04  4880   0.252E+02
DAV:   3    -0.415253811883E+03   -0.16771E+03   -0.15784E+03  7592   0.865E+01
DAV:   4    -0.430233060641E+03   -0.14979E+02   -0.14254E+02  7744   0.272E+01
DAV:   5    -0.431106513612E+03   -0.87345E+00   -0.84131E+00  7760   0.560E+00    0.808E+01
DAV:   6    -0.849503694813E+03   -0.41840E+03   -0.50584E+03  9562   0.106E+02    0.128E+02
DAV:   7    -0.382966467534E+03    0.46654E+03   -0.64479E+03  8898   0.157E+02    0.453E+01
DAV:   8    -0.364191615472E+03    0.18775E+02   -0.93638E+02  7904   0.941E+01    0.325E+01
DAV:   9    -0.367559030827E+03   -0.33674E+01   -0.17262E+02  8128   0.292E+01    0.284E+01
DAV:  10    -0.369295146497E+03   -0.17361E+01   -0.18743E+01  8160   0.820E+00    0.299E+01
DAV:  11    -0.369403099315E+03   -0.10795E+00   -0.12111E+00  7848   0.165E+00    0.300E+01
DAV:  12    -0.371305375995E+03   -0.19023E+01   -0.27508E+00  7712   0.394E+00    0.320E+01
DAV:  13    -0.367086392607E+03    0.42190E+01   -0.84307E+00  7632   0.699E+00    0.267E+01
DAV:  14    -0.363260036295E+03    0.38264E+01   -0.57791E+00  7752   0.631E+00    0.223E+01
DAV:  15    -0.360072491444E+03    0.31875E+01   -0.52336E+01  6598   0.219E+01    0.203E+01
DAV:  16    -0.355731311574E+03    0.43412E+01   -0.98430E+00  7496   0.893E+00    0.165E+01
DAV:  17    -0.358117740232E+03   -0.23864E+01   -0.30348E+01  7960   0.104E+01    0.259E+01
DAV:  18    -0.358833787883E+03   -0.71605E+00   -0.30641E+00  7232   0.493E+00    0.284E+01
DAV:  19    -0.361980835541E+03   -0.31470E+01   -0.35955E+00  7736   0.324E+00    0.308E+01
DAV:  20    -0.366424075203E+03   -0.44432E+01   -0.75734E+00  7800   0.483E+00    0.325E+01
DAV:  21    -0.368403701761E+03   -0.19796E+01   -0.12132E+00  8318   0.241E+00    0.332E+01
DAV:  22    -0.368815419953E+03   -0.41172E+00   -0.37418E-01  7982   0.143E+00    0.322E+01
DAV:  23    -0.368157713494E+03    0.65771E+00   -0.86700E-01  6328   0.267E+00    0.275E+01
DAV:  24    -0.369790845907E+03   -0.16331E+01   -0.49224E-01  7712   0.170E+00    0.290E+01
DAV:  25    -0.364815628221E+03    0.49752E+01   -0.16254E+00  7254   0.206E+00    0.247E+01
DAV:  26    -0.359754869797E+03    0.50608E+01   -0.32867E+00  7592   0.274E+00    0.188E+01
DAV:  27    -0.357217463045E+03    0.25374E+01   -0.15029E+00  7912   0.176E+00    0.152E+01
DAV:  28    -0.355566867533E+03    0.16506E+01   -0.10124E+00  7678   0.157E+00    0.117E+01
DAV:  29    -0.353792452273E+03    0.17744E+01   -0.35770E+00  7752   0.291E+00    0.587E+00
DAV:  30    -0.353749291626E+03    0.43161E-01   -0.36604E-01  7998   0.146E+00    0.510E+00
DAV:  31    -0.353616570047E+03    0.13272E+00   -0.21056E-01  7912   0.809E-01    0.329E+00
DAV:  32    -0.353480040460E+03    0.13653E+00   -0.46384E-01  8056   0.128E+00    0.973E-01
DAV:  33    -0.353493205889E+03   -0.13165E-01   -0.24681E-01  7176   0.101E+00    0.120E+00
DAV:  34    -0.353487034237E+03    0.61717E-02   -0.28092E-02  6646   0.371E-01    0.111E+00
DAV:  35    -0.353473724773E+03    0.13309E-01   -0.35691E-02  7424   0.326E-01    0.580E-01
DAV:  36    -0.353474759200E+03   -0.10344E-02   -0.34241E-03  6632   0.143E-01    0.564E-01
DAV:  37    -0.353475281946E+03   -0.52275E-03   -0.21561E-03  7768   0.112E-01    0.515E-01
DAV:  38    -0.353472241201E+03    0.30407E-02   -0.11362E-02  7948   0.219E-01    0.120E-01
DAV:  39    -0.353472269373E+03   -0.28172E-04   -0.11087E-03  7200   0.803E-02    0.547E-02
DAV:  40    -0.353472393125E+03   -0.12375E-03   -0.69249E-04  8296   0.484E-02    0.763E-02
DAV:  41    -0.353472390746E+03    0.23781E-05   -0.24858E-04  7640   0.406E-02    0.392E-02
DAV:  42    -0.353472406779E+03   -0.16033E-04   -0.10157E-04  7168   0.218E-02    0.341E-02
DAV:  43    -0.353472392869E+03    0.13910E-04   -0.45744E-05  6936   0.178E-02    0.113E-02
DAV:  44    -0.353472391327E+03    0.15426E-05   -0.24640E-05  5592   0.115E-02
   1 F= -.35347239E+03 E0= -.35342000E+03  d E =-.104778E+00
 running on   16 total cores
 distrk:  each k-point on    8 cores,    2 groups
 distr:  one band on    4 cores,    2 groups
 using from now: INCAR     
 vasp.5.4.4.18Apr17-6-g9f103f2a35 (build Nov 27 2019 20:08:17) complex          
  
 POSCAR found type information on POSCAR  Ti
 POSCAR found :  1 types and      36 ions
 scaLAPACK will be used

 ----------------------------------------------------------------------------- 
|                                                                             |
|           W    W    AA    RRRRR   N    N  II  N    N   GGGG   !!!           |
|           W    W   A  A   R    R  NN   N  II  NN   N  G    G  !!!           |
|           W    W  A    A  R    R  N N  N  II  N N  N  G       !!!           |
|           W WW W  AAAAAA  RRRRR   N  N N  II  N  N N  G  GGG   !            |
|           WW  WW  A    A  R   R   N   NN  II  N   NN  G    G                |
|           W    W  A    A  R    R  N    N  II  N    N   GGGG   !!!           |
|                                                                             |
|      You have enabled k-point parallelism (KPAR>1).                         |
|      This developmental code was originally  written by Paul Kent at ORNL,  |
|      and carefully double checked in Vienna.                                |
|      GW as well as linear response parallelism added by Martijn Marsman     |
|      and Georg Kresse.                                                      |
|      Carefully verify results versus KPAR=1.                                |
|      Report problems to Paul Kent and Vienna.                               |
|                                                                             |
 ----------------------------------------------------------------------------- 

 LDA part: xc-table for Pade appr. of Perdew
 POSCAR found type information on POSCAR  Ti
 POSCAR found :  1 types and      36 ions
 POSCAR, INCAR and KPOINTS ok, starting setup
 FFT: planning ...
 WAVECAR not read
 WARNING: random wavefunctions but no delay for mixing, default for NELMDL
 entering main loop
       N       E                     dE             d eps       ncg     rms          rms(c)
DAV:   1     0.745122093049E+03    0.74512E+03   -0.41096E+04  2208   0.108E+03
DAV:   2    -0.190798084301E+03   -0.93592E+03   -0.89942E+03  2208   0.246E+02
DAV:   3    -0.324871765526E+03   -0.13407E+03   -0.12393E+03  3264   0.878E+01
DAV:   4    -0.334341008892E+03   -0.94692E+01   -0.87526E+01  3184   0.289E+01
DAV:   5    -0.334894784284E+03   -0.55378E+00   -0.52928E+00  3624   0.573E+00    0.799E+01
DAV:   6    -0.514652356220E+03   -0.17976E+03   -0.26542E+03  4168   0.915E+01    0.108E+02
DAV:   7    -0.303933342164E+03    0.21072E+03   -0.46239E+03  4068   0.168E+02    0.389E+01
DAV:   8    -0.282726924745E+03    0.21206E+02   -0.50579E+02  3176   0.777E+01    0.359E+01
DAV:   9    -0.278126118303E+03    0.46008E+01   -0.32880E+01  3664   0.135E+01    0.302E+01
DAV:  10    -0.279220906115E+03   -0.10948E+01   -0.16591E+00  3544   0.260E+00    0.313E+01
DAV:  11    -0.265209530992E+03    0.14011E+02   -0.34617E+01  3348   0.189E+01    0.120E+01
DAV:  12    -0.263812376503E+03    0.13972E+01   -0.37929E+00  3432   0.608E+00    0.780E+00
DAV:  13    -0.263372055845E+03    0.44032E+00   -0.40444E-01  3236   0.217E+00    0.640E+00
DAV:  14    -0.262627911441E+03    0.74414E+00   -0.19337E+00  2852   0.498E+00    0.317E+00
DAV:  15    -0.262581549703E+03    0.46362E-01   -0.57139E-01  3288   0.258E+00    0.213E+00
DAV:  16    -0.262592776923E+03   -0.11227E-01   -0.40290E-02  3472   0.615E-01    0.183E+00
DAV:  17    -0.262582430271E+03    0.10347E-01   -0.97475E-02  3464   0.728E-01    0.886E-01
DAV:  18    -0.262581125996E+03    0.13043E-02   -0.75774E-02  3112   0.895E-01    0.515E-01
DAV:  19    -0.262577371956E+03    0.37540E-02   -0.21987E-02  3432   0.438E-01    0.113E-01
DAV:  20    -0.262579754667E+03   -0.23827E-02   -0.88082E-03  3624   0.278E-01    0.247E-01
DAV:  21    -0.262579679817E+03    0.74849E-04   -0.42266E-03  3312   0.213E-01    0.179E-01
DAV:  22    -0.262579540918E+03    0.13890E-03   -0.61671E-04  3368   0.711E-02    0.870E-02
DAV:  23    -0.262579605946E+03   -0.65028E-04   -0.22489E-04  2608   0.564E-02    0.445E-02
DAV:  24    -0.262579882046E+03   -0.27610E-03   -0.51328E-04  2744   0.719E-02    0.480E-02
DAV:  25    -0.262579965106E+03   -0.83061E-04   -0.84820E-05  3296   0.293E-02    0.464E-02
DAV:  26    -0.262580069940E+03   -0.10483E-03   -0.21939E-04  2644   0.519E-02    0.193E-02
DAV:  27    -0.262580165815E+03   -0.95876E-04   -0.24348E-05  2168   0.156E-02    0.852E-03
DAV:  28    -0.262580181915E+03   -0.16100E-04   -0.46517E-06  1612   0.611E-03    0.561E-03
DAV:  29    -0.262580187662E+03   -0.57467E-05   -0.24454E-06  1436   0.440E-03    0.268E-03
DAV:  30    -0.262580189706E+03   -0.20440E-05   -0.79079E-07  1372   0.229E-03
   1 F= -.26258019E+03 E0= -.26252735E+03  d E =-.105686E+00
 running on   16 total cores
 distrk:  each k-point on    8 cores,    2 groups
 distr:  one band on    4 cores,    2 groups
 using from now: INCAR     
 vasp.5.4.4.18Apr17-6-g9f103f2a35 (build Nov 27 2019 20:08:17) complex          
  
 POSCAR found type information on POSCAR  Ti
 POSCAR found :  1 types and      84 ions
 scaLAPACK will be used

 ----------------------------------------------------------------------------- 
|                                                                             |
|           W    W    AA    RRRRR   N    N  II  N    N   GGGG   !!!           |
|           W    W   A  A   R    R  NN   N  II  NN   N  G    G  !!!           |
|           W    W  A    A  R    R  N N  N  II  N N  N  G       !!!           |
|           W WW W  AAAAAA  RRRRR   N  N N  II  N  N N  G  GGG   !            |
|           WW  WW  A    A  R   R   N   NN  II  N   NN  G    G                |
|           W    W  A    A  R    R  N    N  II  N    N   GGGG   !!!           |
|                                                                             |
|      You have enabled k-point parallelism (KPAR>1).                         |
|      This developmental code was originally  written by Paul Kent at ORNL,  |
|      and carefully double checked in Vienna.                                |
|      GW as well as linear response parallelism added by Martijn Marsman     |
|      and Georg Kresse.                                                      |
|      Carefully verify results versus KPAR=1.                                |
|      Report problems to Paul Kent and Vienna.                               |
|                                                                             |
 ----------------------------------------------------------------------------- 

 LDA part: xc-table for Pade appr. of Perdew
 POSCAR found type information on POSCAR  Ti
 POSCAR found :  1 types and      84 ions
 POSCAR, INCAR and KPOINTS ok, starting setup
 FFT: planning ...
 WAVECAR not read
 WARNING: random wavefunctions but no delay for mixing, default for NELMDL
 entering main loop
       N       E                     dE             d eps       ncg     rms          rms(c)
DAV:   1     0.143611589648E+04    0.14361E+04   -0.96231E+04  8480   0.124E+03
DAV:   2    -0.438994437737E+03   -0.18751E+04   -0.18208E+04  8480   0.276E+02
DAV:   3    -0.715542638617E+03   -0.27655E+03   -0.25717E+03 12544   0.956E+01
DAV:   4    -0.738082509457E+03   -0.22540E+02   -0.21121E+02 12584   0.278E+01
DAV:   5    -0.739019497114E+03   -0.93699E+00   -0.90630E+00 12296   0.440E+00    0.114E+02
DAV:   6    -0.210127032865E+04   -0.13623E+04   -0.13268E+04 16504   0.194E+02    0.143E+02
DAV:   7    -0.951350412921E+03    0.11499E+04   -0.16190E+04 15288   0.193E+02    0.865E+01
DAV:   8    -0.638283617265E+03    0.31307E+03   -0.30875E+03 14024   0.124E+02    0.539E+01
DAV:   9    -0.688439768065E+03   -0.50156E+02   -0.11792E+03 14264   0.631E+01    0.500E+01
DAV:  10    -0.694572363578E+03   -0.61326E+01   -0.31233E+02 14480   0.438E+01    0.513E+01
DAV:  11    -0.663519070817E+03    0.31053E+02   -0.93469E+01 14712   0.260E+01    0.400E+01
DAV:  12    -0.660067662514E+03    0.34514E+01   -0.41793E+01 13992   0.141E+01    0.364E+01
DAV:  13    -0.663298436676E+03   -0.32308E+01   -0.44525E+00 12712   0.453E+00    0.390E+01
DAV:  14    -0.659228792097E+03    0.40696E+01   -0.37282E+00 13192   0.432E+00    0.348E+01
DAV:  15    -0.652434699643E+03    0.67941E+01   -0.95614E+00 13440   0.737E+00    0.290E+01
DAV:  16    -0.645412149139E+03    0.70226E+01   -0.71473E+00 11624   0.685E+00    0.214E+01
DAV:  17    -0.641133476002E+03    0.42787E+01   -0.11845E+01 12344   0.819E+00    0.139E+01
DAV:  18    -0.640653963054E+03    0.47951E+00   -0.10085E+00 11904   0.240E+00    0.130E+01
DAV:  19    -0.640606232944E+03    0.47730E-01   -0.75687E-02 13256   0.538E-01    0.128E+01
DAV:  20    -0.640622114728E+03   -0.15882E-01   -0.28271E-01 13160   0.111E+00    0.125E+01
DAV:  21    -0.639698861181E+03    0.92325E+00   -0.15094E+00 13528   0.244E+00    0.104E+01
DAV:  22    -0.638506026779E+03    0.11928E+01   -0.24468E+00 13688   0.339E+00    0.826E+00
DAV:  23    -0.638113605889E+03    0.39242E+00   -0.75971E-01 12768   0.215E+00    0.686E+00
DAV:  24    -0.637807322804E+03    0.30628E+00   -0.29488E-01 11928   0.131E+00    0.573E+00
DAV:  25    -0.637552835940E+03    0.25449E+00   -0.39810E-01 12952   0.134E+00    0.408E+00
DAV:  26    -0.637369277816E+03    0.18356E+00   -0.47962E-01 12256   0.154E+00    0.195E+00
DAV:  27    -0.637336389356E+03    0.32888E-01   -0.19698E-01 12480   0.110E+00    0.116E+00
DAV:  28    -0.637336010992E+03    0.37836E-03   -0.77039E-02 13096   0.688E-01    0.101E+00
DAV:  29    -0.637328787359E+03    0.72236E-02   -0.13914E-01 12136   0.909E-01    0.877E-01
DAV:  30    -0.637325723231E+03    0.30641E-02   -0.39173E-02 12744   0.474E-01    0.805E-01
DAV:  31    -0.637326143751E+03   -0.42052E-03   -0.15531E-02 13048   0.270E-01    0.677E-01
DAV:  32    -0.637320349511E+03    0.57942E-02   -0.11682E-02 12824   0.251E-01    0.387E-01
DAV:  33    -0.637319267670E+03    0.10818E-02   -0.45368E-03 13464   0.139E-01    0.224E-01
DAV:  34    -0.637319146502E+03    0.12117E-03   -0.12215E-03 12952   0.794E-02    0.144E-01
DAV:  35    -0.637319211477E+03   -0.64975E-04   -0.54055E-04 12704   0.557E-02    0.129E-01
DAV:  36    -0.637319157458E+03    0.54019E-04   -0.24607E-04 13192   0.372E-02    0.102E-01
DAV:  37    -0.637319102036E+03    0.55422E-04   -0.22066E-04 13336   0.324E-02    0.727E-02
DAV:  38    -0.637319090811E+03    0.11225E-04   -0.99436E-05 12792   0.223E-02    0.548E-02
DAV:  39    -0.637319085557E+03    0.52531E-05   -0.54038E-05 11624   0.175E-02    0.348E-02
DAV:  40    -0.637319080250E+03    0.53074E-05   -0.16042E-05  7264   0.110E-02    0.248E-02
DAV:  41    -0.637319075964E+03    0.42863E-05   -0.79716E-06  5440   0.843E-03
   1 F= -.63731908E+03 E0= -.63722845E+03  d E =-.181260E+00
Distance=2.100
 running on   16 total cores
 distrk:  each k-point on    8 cores,    2 groups
 distr:  one band on    4 cores,    2 groups
 using from now: INCAR     
 vasp.5.4.4.18Apr17-6-g9f103f2a35 (build Nov 27 2019 20:08:17) complex          
  
 POSCAR found type information on POSCAR  Ti
 POSCAR found :  1 types and      48 ions
 scaLAPACK will be used

 ----------------------------------------------------------------------------- 
|                                                                             |
|           W    W    AA    RRRRR   N    N  II  N    N   GGGG   !!!           |
|           W    W   A  A   R    R  NN   N  II  NN   N  G    G  !!!           |
|           W    W  A    A  R    R  N N  N  II  N N  N  G       !!!           |
|           W WW W  AAAAAA  RRRRR   N  N N  II  N  N N  G  GGG   !            |
|           WW  WW  A    A  R   R   N   NN  II  N   NN  G    G                |
|           W    W  A    A  R    R  N    N  II  N    N   GGGG   !!!           |
|                                                                             |
|      You have enabled k-point parallelism (KPAR>1).                         |
|      This developmental code was originally  written by Paul Kent at ORNL,  |
|      and carefully double checked in Vienna.                                |
|      GW as well as linear response parallelism added by Martijn Marsman     |
|      and Georg Kresse.                                                      |
|      Carefully verify results versus KPAR=1.                                |
|      Report problems to Paul Kent and Vienna.                               |
|                                                                             |
 ----------------------------------------------------------------------------- 

 LDA part: xc-table for Pade appr. of Perdew
 POSCAR found type information on POSCAR  Ti
 POSCAR found :  1 types and      48 ions
 POSCAR, INCAR and KPOINTS ok, starting setup
 FFT: planning ...
 WAVECAR not read
 entering main loop
       N       E                     dE             d eps       ncg     rms          rms(c)
DAV:   1     0.893531993209E+03    0.89353E+03   -0.55016E+04  4880   0.114E+03
DAV:   2    -0.248259271187E+03   -0.11418E+04   -0.11030E+04  4880   0.253E+02
DAV:   3    -0.415529849449E+03   -0.16727E+03   -0.15755E+03  7660   0.865E+01
DAV:   4    -0.430218476101E+03   -0.14689E+02   -0.13957E+02  7776   0.271E+01
DAV:   5    -0.431107398541E+03   -0.88892E+00   -0.85176E+00  7808   0.546E+00    0.808E+01
DAV:   6    -0.849430961561E+03   -0.41832E+03   -0.50645E+03  9544   0.106E+02    0.128E+02
DAV:   7    -0.384104897137E+03    0.46533E+03   -0.64736E+03  8900   0.158E+02    0.454E+01
DAV:   8    -0.364489123903E+03    0.19616E+02   -0.93537E+02  7864   0.943E+01    0.326E+01
DAV:   9    -0.367537037105E+03   -0.30479E+01   -0.17392E+02  8120   0.296E+01    0.285E+01
DAV:  10    -0.369243384559E+03   -0.17063E+01   -0.19192E+01  8208   0.825E+00    0.298E+01
DAV:  11    -0.369372301505E+03   -0.12892E+00   -0.12366E+00  7800   0.166E+00    0.300E+01
DAV:  12    -0.370085835662E+03   -0.71353E+00   -0.67205E-01  7760   0.187E+00    0.307E+01
DAV:  13    -0.368125542621E+03    0.19603E+01   -0.73937E+00  7768   0.603E+00    0.285E+01
DAV:  14    -0.367458417010E+03    0.66713E+00   -0.11039E+00  8184   0.253E+00    0.281E+01
DAV:  15    -0.374632196735E+03   -0.71738E+01   -0.74691E+01  7338   0.209E+01    0.299E+01
DAV:  16    -0.369005271045E+03    0.56269E+01   -0.53237E+00  7140   0.698E+00    0.263E+01
DAV:  17    -0.375896466298E+03   -0.68912E+01   -0.11973E+01  7240   0.892E+00    0.299E+01
DAV:  18    -0.372498752677E+03    0.33977E+01   -0.13445E+00  7182   0.289E+00    0.281E+01
DAV:  19    -0.374794030562E+03   -0.22953E+01   -0.10944E+00  7216   0.262E+00    0.293E+01
DAV:  20    -0.375890989389E+03   -0.10970E+01   -0.25210E-01  8320   0.129E+00    0.301E+01
DAV:  21    -0.374029976670E+03    0.18610E+01   -0.32508E-01  7296   0.140E+00    0.290E+01
DAV:  22    -0.374046059178E+03   -0.16083E-01   -0.30056E-02  6576   0.510E-01    0.291E+01
DAV:  23    -0.374042577046E+03    0.34821E-02   -0.28953E-03  8064   0.129E-01    0.290E+01
DAV:  24    -0.373984426126E+03    0.58151E-01   -0.46384E-04  8088   0.454E-02    0.290E+01
DAV:  25    -0.374263480194E+03   -0.27905E+00   -0.34058E-02  7240   0.495E-01    0.294E+01
DAV:  26    -0.374396318675E+03   -0.13284E+00   -0.10770E-02  7600   0.282E-01    0.296E+01
DAV:  27    -0.373209506868E+03    0.11868E+01   -0.80661E-02  7328   0.596E-01    0.288E+01
DAV:  28    -0.370075457638E+03    0.31340E+01   -0.63654E-01  7600   0.182E+00    0.262E+01
DAV:  29    -0.369447722317E+03    0.62774E+00   -0.10060E-01  7176   0.880E-01    0.256E+01
DAV:  30    -0.366888766956E+03    0.25590E+01   -0.56078E-01  7794   0.159E+00    0.236E+01
DAV:  31    -0.361503204841E+03    0.53856E+01   -0.38696E+00  7760   0.425E+00    0.187E+01
DAV:  32    -0.357800654924E+03    0.37025E+01   -0.34544E+00  7856   0.352E+00    0.141E+01
DAV:  33    -0.357765232342E+03    0.35423E-01   -0.20250E-01  7374   0.119E+00    0.140E+01
DAV:  34    -0.357588789493E+03    0.17644E+00   -0.34529E-02  8536   0.325E-01    0.137E+01
DAV:  35    -0.356528833245E+03    0.10600E+01   -0.56882E-01  7888   0.170E+00    0.122E+01
DAV:  36    -0.356312265637E+03    0.21657E+00   -0.85057E-02  7592   0.668E-01    0.120E+01
DAV:  37    -0.356095046240E+03    0.21722E+00   -0.60729E-02  7304   0.498E-01    0.121E+01
DAV:  38    -0.355077923869E+03    0.10171E+01   -0.97198E-01  7708   0.214E+00    0.101E+01
DAV:  39    -0.354675477728E+03    0.40245E+00   -0.25718E-01  8000   0.879E-01    0.915E+00
DAV:  40    -0.354340207453E+03    0.33527E+00   -0.22258E-01  7970   0.995E-01    0.807E+00
DAV:  41    -0.354122055973E+03    0.21815E+00   -0.11619E-01  8008   0.601E-01    0.729E+00
DAV:  42    -0.353933949645E+03    0.18811E+00   -0.11455E-01  7886   0.654E-01    0.633E+00
DAV:  43    -0.353802376653E+03    0.13157E+00   -0.89264E-02  8000   0.616E-01    0.570E+00
DAV:  44    -0.353770226475E+03    0.32150E-01   -0.16485E-02  8152   0.275E-01    0.537E+00
DAV:  45    -0.353766762725E+03    0.34637E-02   -0.46902E-03  6670   0.185E-01    0.533E+00
DAV:  46    -0.353692774383E+03    0.73988E-01   -0.35670E-02  7750   0.359E-01    0.476E+00
DAV:  47    -0.353612353652E+03    0.80421E-01   -0.57572E-02  7864   0.446E-01    0.397E+00
DAV:  48    -0.353568131675E+03    0.44222E-01   -0.27987E-02  8096   0.309E-01    0.336E+00
DAV:  49    -0.353517170763E+03    0.50961E-01   -0.56949E-02  7784   0.456E-01    0.242E+00
DAV:  50    -0.353495412705E+03    0.21758E-01   -0.28472E-02  8104   0.308E-01    0.173E+00
DAV:  51    -0.353483744627E+03    0.11668E-01   -0.15810E-02  8192   0.253E-01    0.130E+00
DAV:  52    -0.353474924146E+03    0.88205E-02   -0.20800E-02  7928   0.274E-01    0.811E-01
DAV:  53    -0.353473493854E+03    0.14303E-02   -0.32243E-03  8328   0.111E-01    0.570E-01
DAV:  54    -0.353472988278E+03    0.50558E-03   -0.66550E-04  7880   0.562E-02    0.402E-01
DAV:  55    -0.353472712239E+03    0.27604E-03   -0.25924E-04  8064   0.253E-02    0.318E-01
DAV:  56    -0.353472342193E+03    0.37005E-03   -0.10202E-03  7736   0.512E-02    0.138E-01
DAV:  57    -0.353472357762E+03   -0.15569E-04   -0.24557E-04  7608   0.334E-02    0.561E-02
DAV:  58    -0.353472412825E+03   -0.55063E-04   -0.12422E-04  7760   0.183E-02    0.197E-02
DAV:  59    -0.353472423063E+03   -0.10238E-04   -0.23479E-05  5352   0.973E-03    0.813E-03
DAV:  60    -0.353472424617E+03   -0.15539E-05   -0.30631E-06  3558   0.464E-03
   1 F= -.35347242E+03 E0= -.35342003E+03  d E =-.104780E+00
 running on   16 total cores
 distrk:  each k-point on    8 cores,    2 groups
 distr:  one band on    4 cores,    2 groups
 using from now: INCAR     
 vasp.5.4.4.18Apr17-6-g9f103f2a35 (build Nov 27 2019 20:08:17) complex          
  
 POSCAR found type information on POSCAR  Ti
 POSCAR found :  1 types and      36 ions
 scaLAPACK will be used

 ----------------------------------------------------------------------------- 
|                                                                             |
|           W    W    AA    RRRRR   N    N  II  N    N   GGGG   !!!           |
|           W    W   A  A   R    R  NN   N  II  NN   N  G    G  !!!           |
|           W    W  A    A  R    R  N N  N  II  N N  N  G       !!!           |
|           W WW W  AAAAAA  RRRRR   N  N N  II  N  N N  G  GGG   !            |
|           WW  WW  A    A  R   R   N   NN  II  N   NN  G    G                |
|           W    W  A    A  R    R  N    N  II  N    N   GGGG   !!!           |
|                                                                             |
|      You have enabled k-point parallelism (KPAR>1).                         |
|      This developmental code was originally  written by Paul Kent at ORNL,  |
|      and carefully double checked in Vienna.                                |
|      GW as well as linear response parallelism added by Martijn Marsman     |
|      and Georg Kresse.                                                      |
|      Carefully verify results versus KPAR=1.                                |
|      Report problems to Paul Kent and Vienna.                               |
|                                                                             |
 ----------------------------------------------------------------------------- 

 LDA part: xc-table for Pade appr. of Perdew
 POSCAR found type information on POSCAR  Ti
 POSCAR found :  1 types and      36 ions
 POSCAR, INCAR and KPOINTS ok, starting setup
 FFT: planning ...
 WAVECAR not read
 WARNING: random wavefunctions but no delay for mixing, default for NELMDL
 entering main loop
       N       E                     dE             d eps       ncg     rms          rms(c)
DAV:   1     0.747036628890E+03    0.74704E+03   -0.41082E+04  2208   0.108E+03
DAV:   2    -0.190616563207E+03   -0.93765E+03   -0.90091E+03  2208   0.247E+02
DAV:   3    -0.324774902174E+03   -0.13416E+03   -0.12387E+03  3248   0.876E+01
DAV:   4    -0.334327809010E+03   -0.95529E+01   -0.87910E+01  3192   0.289E+01
DAV:   5    -0.334897333398E+03   -0.56952E+00   -0.54270E+00  3624   0.580E+00    0.799E+01
DAV:   6    -0.515421378485E+03   -0.18052E+03   -0.26647E+03  4156   0.916E+01    0.108E+02
DAV:   7    -0.304535954866E+03    0.21089E+03   -0.46449E+03  4084   0.168E+02    0.390E+01
DAV:   8    -0.282877011080E+03    0.21659E+02   -0.50625E+02  3200   0.777E+01    0.359E+01
DAV:   9    -0.278432808351E+03    0.44442E+01   -0.32632E+01  3632   0.136E+01    0.305E+01
DAV:  10    -0.276895820182E+03    0.15370E+01   -0.15738E+00  3584   0.262E+00    0.289E+01
DAV:  11    -0.262384220345E+03    0.14512E+02   -0.63752E+01  3288   0.260E+01    0.682E+00
DAV:  12    -0.262818284494E+03   -0.43406E+00   -0.37571E+00  3268   0.611E+00    0.486E+00
DAV:  13    -0.263856542131E+03   -0.10383E+01   -0.30776E+00  3416   0.535E+00    0.840E+00
DAV:  14    -0.263030419173E+03    0.82612E+00   -0.14499E+00  3348   0.367E+00    0.523E+00
DAV:  15    -0.262568831987E+03    0.46159E+00   -0.25392E+00  3256   0.529E+00    0.109E+00
DAV:  16    -0.262571988467E+03   -0.31565E-02   -0.10648E-01  3212   0.879E-01    0.767E-01
DAV:  17    -0.262573608860E+03   -0.16204E-02   -0.79173E-02  3424   0.819E-01    0.501E-01
DAV:  18    -0.262575905014E+03   -0.22962E-02   -0.30967E-02  3296   0.484E-01    0.161E-01
DAV:  19    -0.262578296375E+03   -0.23914E-02   -0.35418E-03  2872   0.173E-01    0.134E-01
DAV:  20    -0.262579303311E+03   -0.10069E-02   -0.30973E-03  3412   0.161E-01    0.154E-01
DAV:  21    -0.262579079672E+03    0.22364E-03   -0.67649E-04  3344   0.865E-02    0.773E-02
DAV:  22    -0.262579663628E+03   -0.58396E-03   -0.28325E-03  3416   0.153E-01    0.928E-02
DAV:  23    -0.262579853752E+03   -0.19012E-03   -0.14118E-04  2888   0.358E-02    0.704E-02
DAV:  24    -0.262580132944E+03   -0.27919E-03   -0.70666E-04  3304   0.789E-02    0.248E-02
DAV:  25    -0.262580289086E+03   -0.15614E-03   -0.39506E-05  2600   0.182E-02    0.151E-02
DAV:  26    -0.262580365152E+03   -0.76066E-04   -0.61149E-06  1688   0.704E-03    0.821E-03
DAV:  27    -0.262580393802E+03   -0.28650E-04   -0.34830E-06  1600   0.454E-03    0.416E-03
DAV:  28    -0.262580397633E+03   -0.38307E-05   -0.16707E-06  1456   0.399E-03
   1 F= -.26258040E+03 E0= -.26252755E+03  d E =-.105686E+00
 running on   16 total cores
 distrk:  each k-point on    8 cores,    2 groups
 distr:  one band on    4 cores,    2 groups
 using from now: INCAR     
 vasp.5.4.4.18Apr17-6-g9f103f2a35 (build Nov 27 2019 20:08:17) complex          
  
 POSCAR found type information on POSCAR  Ti
 POSCAR found :  1 types and      84 ions
 scaLAPACK will be used

 ----------------------------------------------------------------------------- 
|                                                                             |
|           W    W    AA    RRRRR   N    N  II  N    N   GGGG   !!!           |
|           W    W   A  A   R    R  NN   N  II  NN   N  G    G  !!!           |
|           W    W  A    A  R    R  N N  N  II  N N  N  G       !!!           |
|           W WW W  AAAAAA  RRRRR   N  N N  II  N  N N  G  GGG   !            |
|           WW  WW  A    A  R   R   N   NN  II  N   NN  G    G                |
|           W    W  A    A  R    R  N    N  II  N    N   GGGG   !!!           |
|                                                                             |
|      You have enabled k-point parallelism (KPAR>1).                         |
|      This developmental code was originally  written by Paul Kent at ORNL,  |
|      and carefully double checked in Vienna.                                |
|      GW as well as linear response parallelism added by Martijn Marsman     |
|      and Georg Kresse.                                                      |
|      Carefully verify results versus KPAR=1.                                |
|      Report problems to Paul Kent and Vienna.                               |
|                                                                             |
 ----------------------------------------------------------------------------- 

 LDA part: xc-table for Pade appr. of Perdew
 POSCAR found type information on POSCAR  Ti
 POSCAR found :  1 types and      84 ions
 POSCAR, INCAR and KPOINTS ok, starting setup
 FFT: planning ...
 WAVECAR not read
 WARNING: random wavefunctions but no delay for mixing, default for NELMDL
 entering main loop
       N       E                     dE             d eps       ncg     rms          rms(c)
DAV:   1     0.143188719047E+04    0.14319E+04   -0.96206E+04  8480   0.124E+03
DAV:   2    -0.439825977954E+03   -0.18717E+04   -0.18179E+04  8480   0.276E+02
DAV:   3    -0.716980070716E+03   -0.27715E+03   -0.25788E+03 12632   0.954E+01
DAV:   4    -0.739538233177E+03   -0.22558E+02   -0.21193E+02 12624   0.277E+01
DAV:   5    -0.740454623085E+03   -0.91639E+00   -0.88672E+00 12336   0.435E+00    0.114E+02
DAV:   6    -0.204828474554E+04   -0.13078E+04   -0.12772E+04 16408   0.192E+02    0.137E+02
DAV:   7    -0.987824546278E+03    0.10605E+04   -0.16241E+04 15296   0.192E+02    0.888E+01
DAV:   8    -0.635118448853E+03    0.35271E+03   -0.32492E+03 14224   0.127E+02    0.545E+01
DAV:   9    -0.685129816272E+03   -0.50011E+02   -0.12629E+03 14280   0.654E+01    0.492E+01
DAV:  10    -0.695624330042E+03   -0.10495E+02   -0.32657E+02 14440   0.437E+01    0.514E+01
DAV:  11    -0.663217838199E+03    0.32406E+02   -0.94967E+01 14760   0.266E+01    0.395E+01
DAV:  12    -0.659560063703E+03    0.36578E+01   -0.42787E+01 14112   0.142E+01    0.357E+01
DAV:  13    -0.661778452140E+03   -0.22184E+01   -0.43534E+00 12576   0.447E+00    0.374E+01
DAV:  14    -0.659925873860E+03    0.18526E+01   -0.21231E+00 13384   0.310E+00    0.353E+01
DAV:  15    -0.656049022805E+03    0.38769E+01   -0.54171E+00 13440   0.543E+00    0.324E+01
DAV:  16    -0.648593491275E+03    0.74555E+01   -0.60289E+00 11736   0.629E+00    0.254E+01
DAV:  17    -0.641561591217E+03    0.70319E+01   -0.20082E+01 12152   0.106E+01    0.149E+01
DAV:  18    -0.640551266881E+03    0.10103E+01   -0.24186E+00 12016   0.374E+00    0.131E+01
DAV:  19    -0.640516372830E+03    0.34894E-01   -0.35587E-01 13000   0.132E+00    0.125E+01
DAV:  20    -0.640373248871E+03    0.14312E+00   -0.93927E-02 12944   0.695E-01    0.119E+01
DAV:  21    -0.639255234873E+03    0.11180E+01   -0.19033E+00 13600   0.270E+00    0.879E+00
DAV:  22    -0.638318444692E+03    0.93679E+00   -0.19592E+00 13632   0.307E+00    0.641E+00
DAV:  23    -0.638080354368E+03    0.23809E+00   -0.67572E-01 13128   0.200E+00    0.546E+00
DAV:  24    -0.637814481561E+03    0.26587E+00   -0.39141E-01 12272   0.149E+00    0.427E+00
DAV:  25    -0.637695293041E+03    0.11919E+00   -0.23913E-01 13384   0.104E+00    0.333E+00
DAV:  26    -0.637603418476E+03    0.91875E-01   -0.26825E-01 12968   0.114E+00    0.203E+00
DAV:  27    -0.637580493495E+03    0.22925E-01   -0.13635E-01 12760   0.924E-01    0.135E+00
DAV:  28    -0.637567452167E+03    0.13041E-01   -0.69777E-02 12632   0.670E-01    0.743E-01
DAV:  29    -0.637561752237E+03    0.56999E-02   -0.51173E-02 12976   0.542E-01    0.451E-01
DAV:  30    -0.637560993075E+03    0.75916E-03   -0.19848E-02 13168   0.331E-01    0.383E-01
DAV:  31    -0.637561076768E+03   -0.83694E-04   -0.96475E-03 13168   0.226E-01    0.358E-01
DAV:  32    -0.637560902646E+03    0.17412E-03   -0.50366E-03 13304   0.150E-01    0.339E-01
DAV:  33    -0.637559913252E+03    0.98939E-03   -0.39151E-03 13480   0.154E-01    0.245E-01
DAV:  34    -0.637559785888E+03    0.12736E-03   -0.77225E-04 12640   0.679E-02    0.184E-01
DAV:  35    -0.637559695334E+03    0.90553E-04   -0.37403E-04 13136   0.410E-02    0.120E-01
DAV:  36    -0.637559701307E+03   -0.59726E-05   -0.38572E-04 11920   0.501E-02    0.939E-02
DAV:  37    -0.637559656992E+03    0.44315E-04   -0.14508E-04 13224   0.299E-02    0.624E-02
DAV:  38    -0.637559649830E+03    0.71623E-05   -0.33537E-05  9688   0.135E-02    0.500E-02
DAV:  39    -0.637559643463E+03    0.63672E-05   -0.14800E-05  7144   0.957E-03    0.279E-02
DAV:  40    -0.637559641208E+03    0.22544E-05   -0.12567E-05  6200   0.760E-03
   1 F= -.63755964E+03 E0= -.63746919E+03  d E =-.180904E+00
Distance=2.150
 running on   16 total cores
 distrk:  each k-point on    8 cores,    2 groups
 distr:  one band on    4 cores,    2 groups
 using from now: INCAR     
 vasp.5.4.4.18Apr17-6-g9f103f2a35 (build Nov 27 2019 20:08:17) complex          
  
 POSCAR found type information on POSCAR  Ti
 POSCAR found :  1 types and      48 ions
 scaLAPACK will be used

 ----------------------------------------------------------------------------- 
|                                                                             |
|           W    W    AA    RRRRR   N    N  II  N    N   GGGG   !!!           |
|           W    W   A  A   R    R  NN   N  II  NN   N  G    G  !!!           |
|           W    W  A    A  R    R  N N  N  II  N N  N  G       !!!           |
|           W WW W  AAAAAA  RRRRR   N  N N  II  N  N N  G  GGG   !            |
|           WW  WW  A    A  R   R   N   NN  II  N   NN  G    G                |
|           W    W  A    A  R    R  N    N  II  N    N   GGGG   !!!           |
|                                                                             |
|      You have enabled k-point parallelism (KPAR>1).                         |
|      This developmental code was originally  written by Paul Kent at ORNL,  |
|      and carefully double checked in Vienna.                                |
|      GW as well as linear response parallelism added by Martijn Marsman     |
|      and Georg Kresse.                                                      |
|      Carefully verify results versus KPAR=1.                                |
|      Report problems to Paul Kent and Vienna.                               |
|                                                                             |
 ----------------------------------------------------------------------------- 

 LDA part: xc-table for Pade appr. of Perdew
 POSCAR found type information on POSCAR  Ti
 POSCAR found :  1 types and      48 ions
 POSCAR, INCAR and KPOINTS ok, starting setup
 FFT: planning ...
 WAVECAR not read
 entering main loop
       N       E                     dE             d eps       ncg     rms          rms(c)
DAV:   1     0.892056856635E+03    0.89206E+03   -0.54943E+04  4880   0.114E+03
DAV:   2    -0.247708413030E+03   -0.11398E+04   -0.11010E+04  4880   0.252E+02
DAV:   3    -0.415440091337E+03   -0.16773E+03   -0.15801E+03  7662   0.864E+01
DAV:   4    -0.430224292238E+03   -0.14784E+02   -0.14040E+02  7744   0.272E+01
DAV:   5    -0.431108050114E+03   -0.88376E+00   -0.85068E+00  7824   0.553E+00    0.808E+01
DAV:   6    -0.850604586963E+03   -0.41950E+03   -0.50653E+03  9562   0.106E+02    0.128E+02
DAV:   7    -0.384156541266E+03    0.46645E+03   -0.65105E+03  8920   0.158E+02    0.455E+01
DAV:   8    -0.364564703594E+03    0.19592E+02   -0.94552E+02  7880   0.949E+01    0.329E+01
DAV:   9    -0.367657348374E+03   -0.30926E+01   -0.17665E+02  8112   0.298E+01    0.286E+01
DAV:  10    -0.369300540826E+03   -0.16432E+01   -0.19633E+01  8152   0.834E+00    0.299E+01
DAV:  11    -0.369431473524E+03   -0.13093E+00   -0.12398E+00  7856   0.170E+00    0.301E+01
DAV:  12    -0.369419157401E+03    0.12316E-01   -0.14555E-01  8344   0.467E-01    0.301E+01
DAV:  13    -0.370362168467E+03   -0.94301E+00   -0.47689E-01  7928   0.157E+00    0.325E+01
DAV:  14    -0.442291834029E+03   -0.71930E+02   -0.52174E+02  7812   0.456E+01    0.619E+01
DAV:  15    -0.463008062611E+03   -0.20716E+02   -0.72762E+01  7616   0.168E+01    0.718E+01
DAV:  16    -0.481133269238E+03   -0.18125E+02   -0.12277E+01  8016   0.532E+00    0.808E+01
DAV:  17    -0.473638483127E+03    0.74948E+01   -0.38973E+00  7392   0.389E+00    0.780E+01
DAV:  18    -0.475899995507E+03   -0.22615E+01   -0.59634E-01  7712   0.864E-01    0.789E+01
DAV:  19    -0.469726553738E+03    0.61734E+01   -0.45418E+00  7392   0.520E+00    0.770E+01
DAV:  20    -0.432952812608E+03    0.36774E+02   -0.43264E+01  7800   0.154E+01    0.598E+01
DAV:  21    -0.423415589354E+03    0.95372E+01   -0.11012E+01  7840   0.838E+00    0.534E+01
DAV:  22    -0.440030279744E+03   -0.16615E+02   -0.46669E+00  7360   0.460E+00    0.592E+01
DAV:  23    -0.440811677541E+03   -0.78140E+00   -0.39480E-01  8160   0.158E+00    0.597E+01
DAV:  24    -0.446110108110E+03   -0.52984E+01   -0.50311E-01  7280   0.166E+00    0.619E+01
DAV:  25    -0.418931854959E+03    0.27178E+02   -0.13717E+01  7464   0.798E+00    0.505E+01
DAV:  26    -0.407640249038E+03    0.11292E+02   -0.54772E+00  7880   0.505E+00    0.453E+01
DAV:  27    -0.404021596836E+03    0.36187E+01   -0.87976E-01  8144   0.246E+00    0.439E+01
DAV:  28    -0.383867009999E+03    0.20155E+02   -0.26258E+01  7576   0.108E+01    0.327E+01
DAV:  29    -0.384141372309E+03   -0.27436E+00   -0.14096E+00  7848   0.301E+00    0.324E+01
DAV:  30    -0.384252111743E+03   -0.11074E+00   -0.11059E-01  8360   0.657E-01    0.323E+01
DAV:  31    -0.382197240781E+03    0.20549E+01   -0.28500E-01  7648   0.113E+00    0.314E+01
DAV:  32    -0.382591157841E+03   -0.39392E+00   -0.20214E-02  7174   0.344E-01    0.318E+01
DAV:  33    -0.383356796277E+03   -0.76564E+00   -0.10670E-01  7592   0.691E-01    0.329E+01
DAV:  34    -0.382513534534E+03    0.84326E+00   -0.29242E-02  7312   0.389E-01    0.326E+01
DAV:  35    -0.375968754804E+03    0.65448E+01   -0.18915E+00  7104   0.222E+00    0.297E+01
DAV:  36    -0.373134734403E+03    0.28340E+01   -0.59737E-01  7848   0.117E+00    0.282E+01
DAV:  37    -0.372852105415E+03    0.28263E+00   -0.35257E-02  7848   0.414E-01    0.279E+01
DAV:  38    -0.371260713613E+03    0.15914E+01   -0.22610E-01  7400   0.883E-01    0.269E+01
DAV:  39    -0.364218830663E+03    0.70419E+01   -0.33693E+00  7392   0.314E+00    0.220E+01
DAV:  40    -0.361536624082E+03    0.26822E+01   -0.12546E+00  8000   0.205E+00    0.194E+01
DAV:  41    -0.361187021542E+03    0.34960E+00   -0.16600E-01  7176   0.114E+00    0.191E+01
DAV:  42    -0.357108477783E+03    0.40785E+01   -0.36323E+00  7104   0.254E+00    0.161E+01
DAV:  43    -0.356031288262E+03    0.10772E+01   -0.79535E-01  8024   0.125E+00    0.143E+01
DAV:  44    -0.355167827634E+03    0.86346E+00   -0.84699E-01  7944   0.158E+00    0.121E+01
DAV:  45    -0.354398112238E+03    0.76972E+00   -0.11316E+00  7688   0.163E+00    0.935E+00
DAV:  46    -0.353848282079E+03    0.54983E+00   -0.19157E+00  7832   0.195E+00    0.646E+00
DAV:  47    -0.354002274187E+03   -0.15399E+00   -0.35304E-01  6686   0.115E+00    0.673E+00
DAV:  48    -0.354362227693E+03   -0.35995E+00   -0.85618E-01  7312   0.132E+00    0.658E+00
DAV:  49    -0.353866746032E+03    0.49548E+00   -0.16865E+00  7448   0.201E+00    0.433E+00
DAV:  50    -0.354073590885E+03   -0.20684E+00   -0.53926E-01  7064   0.126E+00    0.454E+00
DAV:  51    -0.354297247050E+03   -0.22366E+00   -0.25069E+00  7446   0.209E+00    0.640E+00
DAV:  52    -0.354232645668E+03    0.64601E-01   -0.37094E-01  6736   0.111E+00    0.623E+00
DAV:  53    -0.354077716778E+03    0.15493E+00   -0.80897E-02  8102   0.580E-01    0.562E+00
DAV:  54    -0.353760685006E+03    0.31703E+00   -0.74827E-01  7784   0.160E+00    0.361E+00
DAV:  55    -0.353742434003E+03    0.18251E-01   -0.56326E-02  7880   0.604E-01    0.333E+00
DAV:  56    -0.353499708700E+03    0.24273E+00   -0.15966E+00  7722   0.262E+00    0.140E+00
DAV:  57    -0.353478632560E+03    0.21076E-01   -0.11897E-01  7456   0.893E-01    0.703E-01
DAV:  58    -0.353482318147E+03   -0.36856E-02   -0.46737E-02  7856   0.387E-01    0.625E-01
DAV:  59    -0.353476338672E+03    0.59795E-02   -0.40317E-02  6982   0.356E-01    0.533E-01
DAV:  60    -0.353475226235E+03    0.11124E-02   -0.32359E-03  6902   0.158E-01    0.433E-01
DAV:  61    -0.353477063432E+03   -0.18372E-02   -0.29792E-02  7136   0.362E-01    0.302E-01
DAV:  62    -0.353476512133E+03    0.55130E-03   -0.23219E-03  6866   0.125E-01    0.334E-01
DAV:  63    -0.353477296873E+03   -0.78474E-03   -0.21134E-03  7616   0.110E-01    0.309E-01
DAV:  64    -0.353473551503E+03    0.37454E-02   -0.44103E-03  6976   0.120E-01    0.161E-01
DAV:  65    -0.353473773174E+03   -0.22167E-03   -0.27965E-04  6936   0.394E-02    0.164E-01
DAV:  66    -0.353472667934E+03    0.11052E-02   -0.16403E-03  7456   0.633E-02    0.772E-02
DAV:  67    -0.353472538651E+03    0.12928E-03   -0.19732E-04  7888   0.258E-02    0.597E-02
DAV:  68    -0.353472510422E+03    0.28229E-04   -0.18425E-05  5120   0.965E-03    0.542E-02
DAV:  69    -0.353472441169E+03    0.69252E-04   -0.69322E-05  6824   0.112E-02    0.362E-02
DAV:  70    -0.353472420855E+03    0.20314E-04   -0.18441E-05  5472   0.732E-03    0.289E-02
DAV:  71    -0.353472393548E+03    0.27307E-04   -0.45260E-05  6864   0.111E-02    0.129E-02
DAV:  72    -0.353472389781E+03    0.37673E-05   -0.67918E-06  4144   0.534E-03
   1 F= -.35347239E+03 E0= -.35342000E+03  d E =-.104780E+00
 running on   16 total cores
 distrk:  each k-point on    8 cores,    2 groups
 distr:  one band on    4 cores,    2 groups
 using from now: INCAR     
 vasp.5.4.4.18Apr17-6-g9f103f2a35 (build Nov 27 2019 20:08:17) complex          
  
 POSCAR found type information on POSCAR  Ti
 POSCAR found :  1 types and      36 ions
 scaLAPACK will be used

 ----------------------------------------------------------------------------- 
|                                                                             |
|           W    W    AA    RRRRR   N    N  II  N    N   GGGG   !!!           |
|           W    W   A  A   R    R  NN   N  II  NN   N  G    G  !!!           |
|           W    W  A    A  R    R  N N  N  II  N N  N  G       !!!           |
|           W WW W  AAAAAA  RRRRR   N  N N  II  N  N N  G  GGG   !            |
|           WW  WW  A    A  R   R   N   NN  II  N   NN  G    G                |
|           W    W  A    A  R    R  N    N  II  N    N   GGGG   !!!           |
|                                                                             |
|      You have enabled k-point parallelism (KPAR>1).                         |
|      This developmental code was originally  written by Paul Kent at ORNL,  |
|      and carefully double checked in Vienna.                                |
|      GW as well as linear response parallelism added by Martijn Marsman     |
|      and Georg Kresse.                                                      |
|      Carefully verify results versus KPAR=1.                                |
|      Report problems to Paul Kent and Vienna.                               |
|                                                                             |
 ----------------------------------------------------------------------------- 

 LDA part: xc-table for Pade appr. of Perdew
 POSCAR found type information on POSCAR  Ti
 POSCAR found :  1 types and      36 ions
 POSCAR, INCAR and KPOINTS ok, starting setup
 FFT: planning ...
 WAVECAR not read
 WARNING: random wavefunctions but no delay for mixing, default for NELMDL
 entering main loop
       N       E                     dE             d eps       ncg     rms          rms(c)
DAV:   1     0.742869092505E+03    0.74287E+03   -0.40935E+04  2208   0.108E+03
DAV:   2    -0.192841330107E+03   -0.93571E+03   -0.89682E+03  2220   0.246E+02
DAV:   3    -0.325092906808E+03   -0.13225E+03   -0.12234E+03  3288   0.877E+01
DAV:   4    -0.334350358717E+03   -0.92575E+01   -0.85172E+01  3192   0.284E+01
DAV:   5    -0.334896430347E+03   -0.54607E+00   -0.51969E+00  3640   0.563E+00    0.799E+01
DAV:   6    -0.515191432493E+03   -0.18030E+03   -0.26502E+03  4164   0.916E+01    0.108E+02
DAV:   7    -0.303750977646E+03    0.21144E+03   -0.46458E+03  4104   0.168E+02    0.389E+01
DAV:   8    -0.282847265023E+03    0.20904E+02   -0.51040E+02  3172   0.784E+01    0.358E+01
DAV:   9    -0.278524811715E+03    0.43225E+01   -0.32938E+01  3624   0.138E+01    0.306E+01
DAV:  10    -0.276829952270E+03    0.16949E+01   -0.16334E+00  3568   0.276E+00    0.289E+01
DAV:  11    -0.263444830581E+03    0.13385E+02   -0.67561E+01  3308   0.256E+01    0.948E+00
DAV:  12    -0.262847385697E+03    0.59744E+00   -0.10368E+01  3332   0.876E+00    0.580E+00
DAV:  13    -0.263549378024E+03   -0.70199E+00   -0.17708E+00  3280   0.480E+00    0.710E+00
DAV:  14    -0.262659307662E+03    0.89007E+00   -0.26803E+00  3232   0.528E+00    0.244E+00
DAV:  15    -0.262571542389E+03    0.87765E-01   -0.42531E-01  3008   0.236E+00    0.116E+00
DAV:  16    -0.262566642465E+03    0.48999E-02   -0.11724E-01  3536   0.929E-01    0.455E-01
DAV:  17    -0.262568898126E+03   -0.22557E-02   -0.17012E-02  3472   0.334E-01    0.242E-01
DAV:  18    -0.262579137796E+03   -0.10240E-01   -0.14257E-02  2944   0.276E-01    0.357E-01
DAV:  19    -0.262578253340E+03    0.88446E-03   -0.14332E-02  3416   0.377E-01    0.861E-02
DAV:  20    -0.262579370306E+03   -0.11170E-02   -0.14419E-03  3000   0.112E-01    0.133E-01
DAV:  21    -0.262579576655E+03   -0.20635E-03   -0.44413E-04  3160   0.611E-02    0.648E-02
DAV:  22    -0.262579727953E+03   -0.15130E-03   -0.86354E-04  3104   0.937E-02    0.342E-02
DAV:  23    -0.262580166616E+03   -0.43866E-03   -0.11589E-04  2504   0.225E-02    0.241E-02
DAV:  24    -0.262580341618E+03   -0.17500E-03   -0.20977E-05  2384   0.104E-02    0.232E-02
DAV:  25    -0.262580532578E+03   -0.19096E-03   -0.87871E-05  3088   0.284E-02    0.894E-03
DAV:  26    -0.262580588238E+03   -0.55660E-04   -0.68452E-06  1760   0.995E-03    0.107E-02
DAV:  27    -0.262580608647E+03   -0.20409E-04   -0.41259E-06  1608   0.664E-03    0.463E-03
DAV:  28    -0.262580612286E+03   -0.36390E-05   -0.18978E-06  1544   0.302E-03
   1 F= -.26258061E+03 E0= -.26252777E+03  d E =-.105686E+00
 running on   16 total cores
 distrk:  each k-point on    8 cores,    2 groups
 distr:  one band on    4 cores,    2 groups
 using from now: INCAR     
 vasp.5.4.4.18Apr17-6-g9f103f2a35 (build Nov 27 2019 20:08:17) complex          
  
 POSCAR found type information on POSCAR  Ti
 POSCAR found :  1 types and      84 ions
 scaLAPACK will be used

 ----------------------------------------------------------------------------- 
|                                                                             |
|           W    W    AA    RRRRR   N    N  II  N    N   GGGG   !!!           |
|           W    W   A  A   R    R  NN   N  II  NN   N  G    G  !!!           |
|           W    W  A    A  R    R  N N  N  II  N N  N  G       !!!           |
|           W WW W  AAAAAA  RRRRR   N  N N  II  N  N N  G  GGG   !            |
|           WW  WW  A    A  R   R   N   NN  II  N   NN  G    G                |
|           W    W  A    A  R    R  N    N  II  N    N   GGGG   !!!           |
|                                                                             |
|      You have enabled k-point parallelism (KPAR>1).                         |
|      This developmental code was originally  written by Paul Kent at ORNL,  |
|      and carefully double checked in Vienna.                                |
|      GW as well as linear response parallelism added by Martijn Marsman     |
|      and Georg Kresse.                                                      |
|      Carefully verify results versus KPAR=1.                                |
|      Report problems to Paul Kent and Vienna.                               |
|                                                                             |
 ----------------------------------------------------------------------------- 

 LDA part: xc-table for Pade appr. of Perdew
 POSCAR found type information on POSCAR  Ti
 POSCAR found :  1 types and      84 ions
 POSCAR, INCAR and KPOINTS ok, starting setup
 FFT: planning ...
 WAVECAR not read
 WARNING: random wavefunctions but no delay for mixing, default for NELMDL
 entering main loop
       N       E                     dE             d eps       ncg     rms          rms(c)
DAV:   1     0.142451567650E+04    0.14245E+04   -0.96084E+04  8480   0.123E+03
DAV:   2    -0.442437428105E+03   -0.18670E+04   -0.18133E+04  8480   0.276E+02
DAV:   3    -0.718667832005E+03   -0.27623E+03   -0.25740E+03 12648   0.951E+01
DAV:   4    -0.741049406898E+03   -0.22382E+02   -0.21033E+02 12592   0.277E+01
DAV:   5    -0.741967917102E+03   -0.91851E+00   -0.88875E+00 12304   0.433E+00    0.113E+02
DAV:   6    -0.200789297839E+04   -0.12659E+04   -0.12400E+04 16408   0.190E+02    0.131E+02
DAV:   7    -0.102238697348E+04    0.98551E+03   -0.16326E+04 15320   0.191E+02    0.914E+01
DAV:   8    -0.633613471249E+03    0.38877E+03   -0.34409E+03 14560   0.131E+02    0.550E+01
DAV:   9    -0.687050105612E+03   -0.53437E+02   -0.13611E+03 14528   0.690E+01    0.491E+01
DAV:  10    -0.695951726893E+03   -0.89016E+01   -0.36084E+02 14560   0.455E+01    0.516E+01
DAV:  11    -0.663190530390E+03    0.32761E+02   -0.97899E+01 14632   0.265E+01    0.395E+01
DAV:  12    -0.659672624066E+03    0.35179E+01   -0.45457E+01 14048   0.145E+01    0.354E+01
DAV:  13    -0.660676290783E+03   -0.10037E+01   -0.44433E+00 12616   0.451E+00    0.359E+01
DAV:  14    -0.660697820931E+03   -0.21530E-01   -0.86040E-01 13512   0.175E+00    0.357E+01
DAV:  15    -0.660103216511E+03    0.59460E+00   -0.52222E-01 12960   0.161E+00    0.354E+01
DAV:  16    -0.659139057499E+03    0.96416E+00   -0.12350E-01 12784   0.887E-01    0.347E+01
DAV:  17    -0.647228576558E+03    0.11910E+02   -0.25792E+01 12632   0.115E+01    0.255E+01
DAV:  18    -0.641883135996E+03    0.53454E+01   -0.14968E+01 11944   0.931E+00    0.209E+01
DAV:  19    -0.641399477633E+03    0.48366E+00   -0.21013E+00 12440   0.336E+00    0.189E+01
DAV:  20    -0.641201913621E+03    0.19756E+00   -0.16108E-01 13112   0.898E-01    0.181E+01
DAV:  21    -0.640583595031E+03    0.61832E+00   -0.80036E-01 13312   0.171E+00    0.149E+01
DAV:  22    -0.639984570329E+03    0.59902E+00   -0.15248E+00 13232   0.248E+00    0.114E+01
DAV:  23    -0.638764020345E+03    0.12205E+01   -0.24630E+00 13728   0.313E+00    0.662E+00
DAV:  24    -0.638205834015E+03    0.55819E+00   -0.16244E+00 13704   0.261E+00    0.543E+00
DAV:  25    -0.637982316889E+03    0.22352E+00   -0.50563E-01 13376   0.154E+00    0.519E+00
DAV:  26    -0.637973622066E+03    0.86948E-02   -0.40036E-01 12872   0.135E+00    0.391E+00
DAV:  27    -0.637868958547E+03    0.10466E+00   -0.11283E-01 11936   0.846E-01    0.316E+00
DAV:  28    -0.637786508866E+03    0.82450E-01   -0.19622E-01 12136   0.108E+00    0.214E+00
DAV:  29    -0.637741130422E+03    0.45378E-01   -0.12995E-01 13072   0.861E-01    0.168E+00
DAV:  30    -0.637729757268E+03    0.11373E-01   -0.62364E-02 13528   0.564E-01    0.157E+00
DAV:  31    -0.637726343003E+03    0.34143E-02   -0.17630E-02 12784   0.325E-01    0.130E+00
DAV:  32    -0.637725919672E+03    0.42333E-03   -0.35822E-03 12984   0.141E-01    0.116E+00
DAV:  33    -0.637726663335E+03   -0.74366E-03   -0.60008E-03 13304   0.173E-01    0.101E+00
DAV:  34    -0.637724425377E+03    0.22380E-02   -0.37316E-03 13104   0.150E-01    0.849E-01
DAV:  35    -0.637722527351E+03    0.18980E-02   -0.30146E-03 13488   0.131E-01    0.714E-01
DAV:  36    -0.637721603005E+03    0.92435E-03   -0.15783E-03 13360   0.857E-02    0.587E-01
DAV:  37    -0.637721114468E+03    0.48854E-03   -0.51675E-04 13480   0.493E-02    0.486E-01
DAV:  38    -0.637720738527E+03    0.37594E-03   -0.33156E-04 13608   0.330E-02    0.386E-01
DAV:  39    -0.637720188984E+03    0.54954E-03   -0.11769E-03 13472   0.614E-02    0.183E-01
DAV:  40    -0.637720134923E+03    0.54061E-04   -0.20079E-04 13272   0.286E-02    0.135E-01
DAV:  41    -0.637720092687E+03    0.42236E-04   -0.82075E-05 12800   0.171E-02    0.913E-02
DAV:  42    -0.637720084761E+03    0.79262E-05   -0.24395E-05  8440   0.125E-02    0.835E-02
DAV:  43    -0.637720059164E+03    0.25597E-04   -0.10372E-04 13144   0.178E-02    0.290E-02
DAV:  44    -0.637720056978E+03    0.21866E-05   -0.12191E-05  6632   0.836E-03
   1 F= -.63772006E+03 E0= -.63763014E+03  d E =-.179842E+00
Distance=2.200
 running on   16 total cores
 distrk:  each k-point on    8 cores,    2 groups
 distr:  one band on    4 cores,    2 groups
 using from now: INCAR     
 vasp.5.4.4.18Apr17-6-g9f103f2a35 (build Nov 27 2019 20:08:17) complex          
  
 POSCAR found type information on POSCAR  Ti
 POSCAR found :  1 types and      48 ions
 scaLAPACK will be used

 ----------------------------------------------------------------------------- 
|                                                                             |
|           W    W    AA    RRRRR   N    N  II  N    N   GGGG   !!!           |
|           W    W   A  A   R    R  NN   N  II  NN   N  G    G  !!!           |
|           W    W  A    A  R    R  N N  N  II  N N  N  G       !!!           |
|           W WW W  AAAAAA  RRRRR   N  N N  II  N  N N  G  GGG   !            |
|           WW  WW  A    A  R   R   N   NN  II  N   NN  G    G                |
|           W    W  A    A  R    R  N    N  II  N    N   GGGG   !!!           |
|                                                                             |
|      You have enabled k-point parallelism (KPAR>1).                         |
|      This developmental code was originally  written by Paul Kent at ORNL,  |
|      and carefully double checked in Vienna.                                |
|      GW as well as linear response parallelism added by Martijn Marsman     |
|      and Georg Kresse.                                                      |
|      Carefully verify results versus KPAR=1.                                |
|      Report problems to Paul Kent and Vienna.                               |
|                                                                             |
 ----------------------------------------------------------------------------- 

 LDA part: xc-table for Pade appr. of Perdew
 POSCAR found type information on POSCAR  Ti
 POSCAR found :  1 types and      48 ions
 POSCAR, INCAR and KPOINTS ok, starting setup
 FFT: planning ...
 WAVECAR not read
 entering main loop
       N       E                     dE             d eps       ncg     rms          rms(c)
DAV:   1     0.893782094266E+03    0.89378E+03   -0.54949E+04  4880   0.113E+03
DAV:   2    -0.247464660992E+03   -0.11412E+04   -0.11025E+04  4880   0.252E+02
DAV:   3    -0.415223105735E+03   -0.16776E+03   -0.15803E+03  7624   0.864E+01
DAV:   4    -0.430209711607E+03   -0.14987E+02   -0.14251E+02  7800   0.273E+01
DAV:   5    -0.431107127054E+03   -0.89742E+00   -0.86289E+00  7752   0.557E+00    0.808E+01
DAV:   6    -0.849998476268E+03   -0.41889E+03   -0.50678E+03  9548   0.106E+02    0.128E+02
DAV:   7    -0.385005137254E+03    0.46499E+03   -0.65313E+03  8912   0.158E+02    0.456E+01
DAV:   8    -0.364289580096E+03    0.20716E+02   -0.94043E+02  7840   0.951E+01    0.329E+01
DAV:   9    -0.367706175680E+03   -0.34166E+01   -0.17917E+02  8168   0.300E+01    0.286E+01
DAV:  10    -0.369304131908E+03   -0.15980E+01   -0.19587E+01  8192   0.834E+00    0.299E+01
DAV:  11    -0.369428239777E+03   -0.12411E+00   -0.12145E+00  7784   0.168E+00    0.301E+01
DAV:  12    -0.369765471479E+03   -0.33723E+00   -0.40864E-01  7792   0.137E+00    0.303E+01
DAV:  13    -0.370254312958E+03   -0.48884E+00   -0.45433E+00  7808   0.422E+00    0.313E+01
DAV:  14    -0.370563310030E+03   -0.30900E+00   -0.12262E+01  7608   0.765E+00    0.277E+01
DAV:  15    -0.379692105931E+03   -0.91288E+01   -0.47169E+01  7864   0.135E+01    0.315E+01
DAV:  16    -0.427413347362E+03   -0.47721E+02   -0.12130E+02  7800   0.226E+01    0.566E+01
DAV:  17    -0.500832554858E+03   -0.73419E+02   -0.83876E+01  7416   0.177E+01    0.820E+01
DAV:  18    -0.470062626718E+03    0.30770E+02   -0.25888E+01  7480   0.133E+01    0.704E+01
DAV:  19    -0.476720049527E+03   -0.66574E+01   -0.36001E+00  7792   0.373E+00    0.702E+01
DAV:  20    -0.486697544521E+03   -0.99775E+01   -0.16945E+00  7288   0.261E+00    0.721E+01
DAV:  21    -0.443207183348E+03    0.43490E+02   -0.13169E+02  7846   0.282E+01    0.464E+01
DAV:  22    -0.439990858245E+03    0.32163E+01   -0.98529E+00  7536   0.949E+00    0.449E+01
DAV:  23    -0.414111508749E+03    0.25879E+02   -0.10757E+01  6984   0.587E+00    0.381E+01
DAV:  24    -0.403031725614E+03    0.11080E+02   -0.33529E+00  8336   0.313E+00    0.341E+01
DAV:  25    -0.398676718871E+03    0.43550E+01   -0.77390E-01  8016   0.171E+00    0.322E+01
DAV:  26    -0.388706639562E+03    0.99701E+01   -0.22854E+00  7096   0.234E+00    0.287E+01
DAV:  27    -0.382194536598E+03    0.65121E+01   -0.13367E+00  7232   0.152E+00    0.277E+01
DAV:  28    -0.369503802784E+03    0.12691E+02   -0.65271E+00  7168   0.338E+00    0.232E+01
DAV:  29    -0.374212192685E+03   -0.47084E+01   -0.29335E+00  7032   0.350E+00    0.258E+01
DAV:  30    -0.366198298328E+03    0.80139E+01   -0.90367E+00  7520   0.690E+00    0.211E+01
DAV:  31    -0.362655628382E+03    0.35427E+01   -0.20901E+00  7904   0.230E+00    0.190E+01
DAV:  32    -0.360600905343E+03    0.20547E+01   -0.79176E-01  7768   0.123E+00    0.170E+01
DAV:  33    -0.358939754810E+03    0.16612E+01   -0.15525E+00  7728   0.196E+00    0.148E+01
DAV:  34    -0.355096696130E+03    0.38431E+01   -0.52304E+00  7392   0.312E+00    0.933E+00
DAV:  35    -0.353914930200E+03    0.11818E+01   -0.28967E+00  7824   0.234E+00    0.559E+00
DAV:  36    -0.353952641518E+03   -0.37711E-01   -0.21334E+00  7560   0.208E+00    0.443E+00
DAV:  37    -0.354201215800E+03   -0.24857E+00   -0.15435E+00  8096   0.255E+00    0.599E+00
DAV:  38    -0.354155591652E+03    0.45624E-01   -0.98281E-02  7520   0.683E-01    0.588E+00
DAV:  39    -0.354124663262E+03    0.30928E-01   -0.17824E-02  7256   0.243E-01    0.587E+00
DAV:  40    -0.354111449560E+03    0.13214E-01   -0.22596E-01  8048   0.107E+00    0.569E+00
DAV:  41    -0.353926554516E+03    0.18490E+00   -0.95174E-01  6968   0.176E+00    0.478E+00
DAV:  42    -0.353822899734E+03    0.10365E+00   -0.14687E-01  6708   0.714E-01    0.442E+00
DAV:  43    -0.353707085577E+03    0.11581E+00   -0.18676E-01  7888   0.937E-01    0.349E+00
DAV:  44    -0.353716739054E+03   -0.96535E-02   -0.41723E-02  7672   0.504E-01    0.357E+00
DAV:  45    -0.353732939837E+03   -0.16201E-01   -0.21137E-02  7856   0.253E-01    0.380E+00
DAV:  46    -0.353655152946E+03    0.77787E-01   -0.79247E-02  7608   0.778E-01    0.327E+00
DAV:  47    -0.353564397628E+03    0.90755E-01   -0.18119E-01  7912   0.911E-01    0.228E+00
DAV:  48    -0.353538373078E+03    0.26025E-01   -0.21930E-02  7752   0.324E-01    0.200E+00
DAV:  49    -0.353514852516E+03    0.23521E-01   -0.41304E-02  7904   0.446E-01    0.152E+00
DAV:  50    -0.353480713525E+03    0.34139E-01   -0.74344E-02  8008   0.675E-01    0.707E-01
DAV:  51    -0.353477643950E+03    0.30696E-02   -0.14790E-02  8416   0.286E-01    0.491E-01
DAV:  52    -0.353474005002E+03    0.36389E-02   -0.73615E-03  7168   0.133E-01    0.378E-01
DAV:  53    -0.353473536865E+03    0.46814E-03   -0.93576E-04  8024   0.746E-02    0.325E-01
DAV:  54    -0.353473239072E+03    0.29779E-03   -0.40724E-04  7512   0.333E-02    0.260E-01
DAV:  55    -0.353472710610E+03    0.52846E-03   -0.93329E-04  7926   0.932E-02    0.131E-01
DAV:  56    -0.353472488793E+03    0.22182E-03   -0.23094E-03  8032   0.116E-01    0.424E-02
DAV:  57    -0.353472474158E+03    0.14635E-04   -0.17530E-04  6844   0.441E-02    0.241E-02
DAV:  58    -0.353472467957E+03    0.62016E-05   -0.12056E-05  4510   0.881E-03    0.192E-02
DAV:  59    -0.353472457577E+03    0.10380E-04   -0.24416E-05  5592   0.886E-03    0.851E-03
DAV:  60    -0.353472458527E+03   -0.95022E-06   -0.28563E-06  3316   0.507E-03
   1 F= -.35347246E+03 E0= -.35342007E+03  d E =-.104773E+00
 running on   16 total cores
 distrk:  each k-point on    8 cores,    2 groups
 distr:  one band on    4 cores,    2 groups
 using from now: INCAR     
 vasp.5.4.4.18Apr17-6-g9f103f2a35 (build Nov 27 2019 20:08:17) complex          
  
 POSCAR found type information on POSCAR  Ti
 POSCAR found :  1 types and      36 ions
 scaLAPACK will be used

 ----------------------------------------------------------------------------- 
|                                                                             |
|           W    W    AA    RRRRR   N    N  II  N    N   GGGG   !!!           |
|           W    W   A  A   R    R  NN   N  II  NN   N  G    G  !!!           |
|           W    W  A    A  R    R  N N  N  II  N N  N  G       !!!           |
|           W WW W  AAAAAA  RRRRR   N  N N  II  N  N N  G  GGG   !            |
|           WW  WW  A    A  R   R   N   NN  II  N   NN  G    G                |
|           W    W  A    A  R    R  N    N  II  N    N   GGGG   !!!           |
|                                                                             |
|      You have enabled k-point parallelism (KPAR>1).                         |
|      This developmental code was originally  written by Paul Kent at ORNL,  |
|      and carefully double checked in Vienna.                                |
|      GW as well as linear response parallelism added by Martijn Marsman     |
|      and Georg Kresse.                                                      |
|      Carefully verify results versus KPAR=1.                                |
|      Report problems to Paul Kent and Vienna.                               |
|                                                                             |
 ----------------------------------------------------------------------------- 

 LDA part: xc-table for Pade appr. of Perdew
 POSCAR found type information on POSCAR  Ti
 POSCAR found :  1 types and      36 ions
 POSCAR, INCAR and KPOINTS ok, starting setup
 FFT: planning ...
 WAVECAR not read
 WARNING: random wavefunctions but no delay for mixing, default for NELMDL
 entering main loop
       N       E                     dE             d eps       ncg     rms          rms(c)
DAV:   1     0.746783530474E+03    0.74678E+03   -0.41059E+04  2208   0.108E+03
DAV:   2    -0.191402527063E+03   -0.93819E+03   -0.90127E+03  2208   0.246E+02
DAV:   3    -0.324817261580E+03   -0.13341E+03   -0.12343E+03  3312   0.875E+01
DAV:   4    -0.334311892571E+03   -0.94946E+01   -0.86909E+01  3224   0.284E+01
DAV:   5    -0.334886262506E+03   -0.57437E+00   -0.54425E+00  3552   0.571E+00    0.798E+01
DAV:   6    -0.516043197447E+03   -0.18116E+03   -0.26736E+03  4176   0.917E+01    0.108E+02
DAV:   7    -0.303867439812E+03    0.21218E+03   -0.46674E+03  4096   0.169E+02    0.390E+01
DAV:   8    -0.282828231400E+03    0.21039E+02   -0.51284E+02  3196   0.783E+01    0.359E+01
DAV:   9    -0.278658166382E+03    0.41701E+01   -0.33592E+01  3640   0.138E+01    0.307E+01
DAV:  10    -0.276997004159E+03    0.16612E+01   -0.18460E+00  3600   0.277E+00    0.291E+01
DAV:  11    -0.262844094409E+03    0.14153E+02   -0.68073E+01  3328   0.260E+01    0.844E+00
DAV:  12    -0.262986471169E+03   -0.14238E+00   -0.95072E+00  3328   0.808E+00    0.600E+00
DAV:  13    -0.263283198391E+03   -0.29673E+00   -0.62841E-01  3336   0.304E+00    0.610E+00
DAV:  14    -0.262804326135E+03    0.47887E+00   -0.70082E-01  2972   0.298E+00    0.383E+00
DAV:  15    -0.262597280435E+03    0.20705E+00   -0.64035E-01  3448   0.252E+00    0.176E+00
DAV:  16    -0.262572700611E+03    0.24580E-01   -0.79422E-02  3200   0.981E-01    0.839E-01
DAV:  17    -0.262571928465E+03    0.77215E-03   -0.69170E-02  3480   0.698E-01    0.237E-01
DAV:  18    -0.262577897506E+03   -0.59690E-02   -0.23773E-02  3292   0.404E-01    0.246E-01
DAV:  19    -0.262578673052E+03   -0.77555E-03   -0.14870E-02  3320   0.387E-01    0.173E-01
DAV:  20    -0.262579860973E+03   -0.11879E-02   -0.27826E-03  3480   0.167E-01    0.239E-01
DAV:  21    -0.262579240031E+03    0.62094E-03   -0.36831E-03  3296   0.174E-01    0.514E-02
DAV:  22    -0.262579775546E+03   -0.53552E-03   -0.16458E-03  3568   0.111E-01    0.816E-02
DAV:  23    -0.262580068880E+03   -0.29333E-03   -0.21017E-04  3080   0.480E-02    0.802E-02
DAV:  24    -0.262580196993E+03   -0.12811E-03   -0.46638E-04  3216   0.660E-02    0.216E-02
DAV:  25    -0.262580332975E+03   -0.13598E-03   -0.15787E-04  3504   0.364E-02    0.277E-02
DAV:  26    -0.262580422179E+03   -0.89204E-04   -0.54786E-05  2840   0.205E-02    0.692E-03
DAV:  27    -0.262580455239E+03   -0.33060E-04   -0.28064E-06  1648   0.463E-03    0.474E-03
DAV:  28    -0.262580470883E+03   -0.15644E-04   -0.28361E-06  1568   0.474E-03    0.173E-03
DAV:  29    -0.262580472429E+03   -0.15459E-05   -0.14402E-06  1432   0.296E-03
   1 F= -.26258047E+03 E0= -.26252763E+03  d E =-.105689E+00
 running on   16 total cores
 distrk:  each k-point on    8 cores,    2 groups
 distr:  one band on    4 cores,    2 groups
 using from now: INCAR     
 vasp.5.4.4.18Apr17-6-g9f103f2a35 (build Nov 27 2019 20:08:17) complex          
  
 POSCAR found type information on POSCAR  Ti
 POSCAR found :  1 types and      84 ions
 scaLAPACK will be used

 ----------------------------------------------------------------------------- 
|                                                                             |
|           W    W    AA    RRRRR   N    N  II  N    N   GGGG   !!!           |
|           W    W   A  A   R    R  NN   N  II  NN   N  G    G  !!!           |
|           W    W  A    A  R    R  N N  N  II  N N  N  G       !!!           |
|           W WW W  AAAAAA  RRRRR   N  N N  II  N  N N  G  GGG   !            |
|           WW  WW  A    A  R   R   N   NN  II  N   NN  G    G                |
|           W    W  A    A  R    R  N    N  II  N    N   GGGG   !!!           |
|                                                                             |
|      You have enabled k-point parallelism (KPAR>1).                         |
|      This developmental code was originally  written by Paul Kent at ORNL,  |
|      and carefully double checked in Vienna.                                |
|      GW as well as linear response parallelism added by Martijn Marsman     |
|      and Georg Kresse.                                                      |
|      Carefully verify results versus KPAR=1.                                |
|      Report problems to Paul Kent and Vienna.                               |
|                                                                             |
 ----------------------------------------------------------------------------- 

 LDA part: xc-table for Pade appr. of Perdew
 POSCAR found type information on POSCAR  Ti
 POSCAR found :  1 types and      84 ions
 POSCAR, INCAR and KPOINTS ok, starting setup
 FFT: planning ...
 WAVECAR not read
 WARNING: random wavefunctions but no delay for mixing, default for NELMDL
 entering main loop
       N       E                     dE             d eps       ncg     rms          rms(c)
DAV:   1     0.142010259523E+04    0.14201E+04   -0.96055E+04  8480   0.123E+03
DAV:   2    -0.443188530107E+03   -0.18633E+04   -0.18099E+04  8480   0.275E+02
DAV:   3    -0.720052405499E+03   -0.27686E+03   -0.25770E+03 12672   0.950E+01
DAV:   4    -0.742599811564E+03   -0.22547E+02   -0.21188E+02 12648   0.276E+01
DAV:   5    -0.743521112411E+03   -0.92130E+00   -0.89202E+00 12328   0.428E+00    0.113E+02
DAV:   6    -0.197501845454E+04   -0.12315E+04   -0.12092E+04 16456   0.188E+02    0.126E+02
DAV:   7    -0.105845110447E+04    0.91657E+03   -0.16474E+04 15368   0.190E+02    0.944E+01
DAV:   8    -0.632559583311E+03    0.42589E+03   -0.36753E+03 14848   0.137E+02    0.553E+01
DAV:   9    -0.729085134635E+03   -0.96526E+02   -0.16403E+03 14928   0.784E+01    0.561E+01
DAV:  10    -0.685755684941E+03    0.43329E+02   -0.57517E+02 15000   0.586E+01    0.497E+01
DAV:  11    -0.663126680005E+03    0.22629E+02   -0.15365E+02 13904   0.266E+01    0.395E+01
DAV:  12    -0.659117534602E+03    0.40091E+01   -0.47760E+01 13984   0.142E+01    0.349E+01
DAV:  13    -0.660576640174E+03   -0.14591E+01   -0.46062E+00 12768   0.440E+00    0.357E+01
DAV:  14    -0.660938652307E+03   -0.36201E+00   -0.97875E-01 13648   0.184E+00    0.357E+01
DAV:  15    -0.660667713182E+03    0.27094E+00   -0.13563E-01 12880   0.910E-01    0.356E+01
DAV:  16    -0.661891096765E+03   -0.12234E+01   -0.26960E-01 13624   0.109E+00    0.364E+01
DAV:  17    -0.652061501700E+03    0.98296E+01   -0.17743E+01 12512   0.968E+00    0.286E+01
DAV:  18    -0.643170941933E+03    0.88906E+01   -0.18676E+01 11448   0.108E+01    0.218E+01
DAV:  19    -0.641532963295E+03    0.16380E+01   -0.48304E+00 13128   0.527E+00    0.196E+01
DAV:  20    -0.641393323643E+03    0.13964E+00   -0.41647E-01 11912   0.146E+00    0.191E+01
DAV:  21    -0.641397549461E+03   -0.42258E-02   -0.89400E-02 13088   0.616E-01    0.185E+01
DAV:  22    -0.641387206002E+03    0.10343E-01   -0.52714E-02 13072   0.493E-01    0.180E+01
DAV:  23    -0.640909185169E+03    0.47802E+00   -0.28905E-01 13432   0.992E-01    0.157E+01
DAV:  24    -0.639756643040E+03    0.11525E+01   -0.26794E+00 13336   0.293E+00    0.980E+00
DAV:  25    -0.638756048986E+03    0.10006E+01   -0.22859E+00 13888   0.296E+00    0.746E+00
DAV:  26    -0.638542830978E+03    0.21322E+00   -0.98546E-01 13016   0.222E+00    0.654E+00
DAV:  27    -0.638229071232E+03    0.31376E+00   -0.36350E-01 12240   0.145E+00    0.501E+00
DAV:  28    -0.637927367073E+03    0.30170E+00   -0.48532E-01 12240   0.158E+00    0.272E+00
DAV:  29    -0.637864909843E+03    0.62457E-01   -0.18185E-01 13416   0.911E-01    0.174E+00
DAV:  30    -0.637837903656E+03    0.27006E-01   -0.77089E-02 13408   0.602E-01    0.137E+00
DAV:  31    -0.637833334886E+03    0.45688E-02   -0.43188E-02 13000   0.471E-01    0.123E+00
DAV:  32    -0.637816038545E+03    0.17296E-01   -0.38905E-02 12664   0.472E-01    0.791E-01
DAV:  33    -0.637808589463E+03    0.74491E-02   -0.29112E-02 13712   0.352E-01    0.315E-01
DAV:  34    -0.637807915461E+03    0.67400E-03   -0.96180E-03 13480   0.200E-01    0.293E-01
DAV:  35    -0.637807765842E+03    0.14962E-03   -0.20664E-03 13040   0.105E-01    0.258E-01
DAV:  36    -0.637807798009E+03   -0.32167E-04   -0.71407E-04 12800   0.676E-02    0.260E-01
DAV:  37    -0.637807962593E+03   -0.16458E-03   -0.44865E-04 13496   0.454E-02    0.289E-01
DAV:  38    -0.637807871466E+03    0.91128E-04   -0.46238E-04 12920   0.469E-02    0.246E-01
DAV:  39    -0.637807656735E+03    0.21473E-03   -0.10132E-03 12376   0.767E-02    0.159E-01
DAV:  40    -0.637807598038E+03    0.58696E-04   -0.23141E-04 13008   0.359E-02    0.113E-01
DAV:  41    -0.637807585814E+03    0.12224E-04   -0.43846E-05 10488   0.149E-02    0.984E-02
DAV:  42    -0.637807571679E+03    0.14135E-04   -0.13521E-05  7008   0.875E-03    0.806E-02
DAV:  43    -0.637807550560E+03    0.21119E-04   -0.80354E-05 12624   0.138E-02    0.392E-02
DAV:  44    -0.637807549058E+03    0.15026E-05   -0.15162E-05  7256   0.943E-03
   1 F= -.63780755E+03 E0= -.63771850E+03  d E =-.178100E+00
Distance=2.250
 running on   16 total cores
 distrk:  each k-point on    8 cores,    2 groups
 distr:  one band on    4 cores,    2 groups
 using from now: INCAR     
 vasp.5.4.4.18Apr17-6-g9f103f2a35 (build Nov 27 2019 20:08:17) complex          
  
 POSCAR found type information on POSCAR  Ti
 POSCAR found :  1 types and      48 ions
 scaLAPACK will be used

 ----------------------------------------------------------------------------- 
|                                                                             |
|           W    W    AA    RRRRR   N    N  II  N    N   GGGG   !!!           |
|           W    W   A  A   R    R  NN   N  II  NN   N  G    G  !!!           |
|           W    W  A    A  R    R  N N  N  II  N N  N  G       !!!           |
|           W WW W  AAAAAA  RRRRR   N  N N  II  N  N N  G  GGG   !            |
|           WW  WW  A    A  R   R   N   NN  II  N   NN  G    G                |
|           W    W  A    A  R    R  N    N  II  N    N   GGGG   !!!           |
|                                                                             |
|      You have enabled k-point parallelism (KPAR>1).                         |
|      This developmental code was originally  written by Paul Kent at ORNL,  |
|      and carefully double checked in Vienna.                                |
|      GW as well as linear response parallelism added by Martijn Marsman     |
|      and Georg Kresse.                                                      |
|      Carefully verify results versus KPAR=1.                                |
|      Report problems to Paul Kent and Vienna.                               |
|                                                                             |
 ----------------------------------------------------------------------------- 

 LDA part: xc-table for Pade appr. of Perdew
 POSCAR found type information on POSCAR  Ti
 POSCAR found :  1 types and      48 ions
 POSCAR, INCAR and KPOINTS ok, starting setup
 FFT: planning ...
 WAVECAR not read
 entering main loop
       N       E                     dE             d eps       ncg     rms          rms(c)
DAV:   1     0.896177238738E+03    0.89618E+03   -0.54886E+04  4880   0.113E+03
DAV:   2    -0.247333597719E+03   -0.11435E+04   -0.11045E+04  4880   0.252E+02
DAV:   3    -0.415360467972E+03   -0.16803E+03   -0.15821E+03  7602   0.864E+01
DAV:   4    -0.430210329835E+03   -0.14850E+02   -0.14125E+02  7792   0.272E+01
DAV:   5    -0.431107634118E+03   -0.89730E+00   -0.86142E+00  7784   0.554E+00    0.808E+01
DAV:   6    -0.850005173913E+03   -0.41890E+03   -0.50616E+03  9578   0.106E+02    0.128E+02
DAV:   7    -0.385790310840E+03    0.46421E+03   -0.65385E+03  8890   0.158E+02    0.456E+01
DAV:   8    -0.364295413098E+03    0.21495E+02   -0.94539E+02  7936   0.950E+01    0.326E+01
DAV:   9    -0.367605553120E+03   -0.33101E+01   -0.17468E+02  8136   0.295E+01    0.286E+01
DAV:  10    -0.369294735783E+03   -0.16892E+01   -0.19370E+01  8200   0.830E+00    0.299E+01
DAV:  11    -0.369427774994E+03   -0.13304E+00   -0.12036E+00  7816   0.167E+00    0.300E+01
DAV:  12    -0.369122218546E+03    0.30556E+00   -0.62142E-01  7952   0.157E+00    0.298E+01
DAV:  13    -0.369563648022E+03   -0.44143E+00   -0.19860E+00  7984   0.303E+00    0.310E+01
DAV:  14    -0.370492845190E+03   -0.92920E+00   -0.10881E+01  7624   0.730E+00    0.285E+01
DAV:  15    -0.390103397496E+03   -0.19611E+02   -0.13691E+02  7398   0.254E+01    0.443E+01
DAV:  16    -0.448332740840E+03   -0.58229E+02   -0.13699E+02  7424   0.238E+01    0.631E+01
DAV:  17    -0.429864277801E+03    0.18468E+02   -0.14416E+01  7064   0.103E+01    0.571E+01
DAV:  18    -0.459000149715E+03   -0.29136E+02   -0.32500E+01  7268   0.120E+01    0.639E+01
DAV:  19    -0.445984902142E+03    0.13015E+02   -0.35741E+00  6724   0.520E+00    0.605E+01
DAV:  20    -0.448478818212E+03   -0.24939E+01   -0.42076E-01  7608   0.153E+00    0.610E+01
DAV:  21    -0.478126759773E+03   -0.29648E+02   -0.13174E+01  6534   0.102E+01    0.679E+01
DAV:  22    -0.472203534611E+03    0.59232E+01   -0.87249E-01  6058   0.285E+00    0.667E+01
DAV:  23    -0.472995114070E+03   -0.79158E+00   -0.61639E-02  8056   0.556E-01    0.668E+01
DAV:  24    -0.412400810072E+03    0.60594E+02   -0.46852E+01  7104   0.119E+01    0.516E+01
DAV:  25    -0.358875799858E+03    0.53525E+02   -0.39764E+02  8256   0.361E+01    0.302E+01
DAV:  26    -0.372283321645E+03   -0.13408E+02   -0.66089E+01  8304   0.140E+01    0.375E+01
DAV:  27    -0.380903182563E+03   -0.86199E+01   -0.10786E+01  8208   0.525E+00    0.442E+01
DAV:  28    -0.374065454808E+03    0.68377E+01   -0.12241E+01  7544   0.840E+00    0.379E+01
DAV:  29    -0.373652260921E+03    0.41319E+00   -0.74323E-01  7664   0.222E+00    0.375E+01
DAV:  30    -0.372504008927E+03    0.11483E+01   -0.23911E-01  7936   0.116E+00    0.363E+01
DAV:  31    -0.363518299756E+03    0.89857E+01   -0.11459E+01  7878   0.798E+00    0.269E+01
DAV:  32    -0.363219955487E+03    0.29834E+00   -0.82208E+01  7820   0.156E+01    0.216E+01
DAV:  33    -0.362679104790E+03    0.54085E+00   -0.14793E+01  7720   0.100E+01    0.211E+01
DAV:  34    -0.361453606843E+03    0.12255E+01   -0.37799E+00  7848   0.502E+00    0.197E+01
DAV:  35    -0.358606703104E+03    0.28469E+01   -0.20957E+00  6920   0.403E+00    0.160E+01
DAV:  36    -0.360839452736E+03   -0.22327E+01   -0.22558E+01  7588   0.133E+01    0.197E+01
DAV:  37    -0.358865351794E+03    0.19741E+01   -0.19499E+00  7032   0.417E+00    0.173E+01
DAV:  38    -0.353532835659E+03    0.53325E+01   -0.34527E+01  7726   0.110E+01    0.550E+00
[...]
DAV:  14    -0.644716231842E+03    0.65154E+01   -0.16426E+01 13176   0.959E+00    0.211E+01
DAV:  15    -0.642657168134E+03    0.20591E+01   -0.24864E+00 12888   0.414E+00    0.188E+01
DAV:  16    -0.642357518940E+03    0.29965E+00   -0.26017E+00 13088   0.350E+00    0.184E+01
DAV:  17    -0.639095638658E+03    0.32619E+01   -0.28376E+00 13528   0.349E+00    0.147E+01
DAV:  18    -0.636553327918E+03    0.25423E+01   -0.30497E+00 13544   0.336E+00    0.101E+01
DAV:  19    -0.635204455071E+03    0.13489E+01   -0.31492E+00 13456   0.377E+00    0.691E+00
DAV:  20    -0.634712643194E+03    0.49181E+00   -0.16874E+00 13408   0.270E+00    0.529E+00
DAV:  21    -0.634574289535E+03    0.13835E+00   -0.60391E-01 12600   0.193E+00    0.437E+00
DAV:  22    -0.634306951753E+03    0.26734E+00   -0.85748E-01 13296   0.192E+00    0.277E+00
DAV:  23    -0.634202634013E+03    0.10432E+00   -0.54864E-01 13312   0.155E+00    0.169E+00
DAV:  24    -0.634206220480E+03   -0.35865E-02   -0.25847E-01 12960   0.114E+00    0.153E+00
DAV:  25    -0.634183193384E+03    0.23027E-01   -0.55075E-02 12920   0.516E-01    0.114E+00
DAV:  26    -0.634187109689E+03   -0.39163E-02   -0.54011E-02 13120   0.536E-01    0.116E+00
DAV:  27    -0.634173597442E+03    0.13512E-01   -0.45136E-02 12896   0.477E-01    0.862E-01
DAV:  28    -0.634158183347E+03    0.15414E-01   -0.51925E-02 13568   0.477E-01    0.263E-01
DAV:  29    -0.634157819386E+03    0.36396E-03   -0.69143E-03 12744   0.171E-01    0.182E-01
DAV:  30    -0.634157689965E+03    0.12942E-03   -0.16715E-03 12472   0.101E-01    0.121E-01
DAV:  31    -0.634157996245E+03   -0.30628E-03   -0.15036E-03 13312   0.884E-02    0.138E-01
DAV:  32    -0.634157684610E+03    0.31163E-03   -0.68333E-04 13280   0.621E-02    0.833E-02
DAV:  33    -0.634157559964E+03    0.12465E-03   -0.10161E-03 13488   0.718E-02    0.589E-02
DAV:  34    -0.634157550960E+03    0.90041E-05   -0.23759E-04 12456   0.393E-02    0.545E-02
DAV:  35    -0.634157533880E+03    0.17080E-04   -0.62835E-05 12144   0.179E-02    0.394E-02
DAV:  36    -0.634157518486E+03    0.15394E-04   -0.61838E-05 11368   0.191E-02    0.136E-02
DAV:  37    -0.634157517122E+03    0.13633E-05   -0.63051E-06  5888   0.707E-03
   1 F= -.63415752E+03 E0= -.63407603E+03  d E =-.162979E+00
Distance=2.950
 running on   16 total cores
 distrk:  each k-point on    8 cores,    2 groups
 distr:  one band on    4 cores,    2 groups
 using from now: INCAR     
 vasp.5.4.4.18Apr17-6-g9f103f2a35 (build Nov 27 2019 20:08:17) complex          
  
 POSCAR found type information on POSCAR  Ti
 POSCAR found :  1 types and      48 ions
 scaLAPACK will be used

 ----------------------------------------------------------------------------- 
|                                                                             |
|           W    W    AA    RRRRR   N    N  II  N    N   GGGG   !!!           |
|           W    W   A  A   R    R  NN   N  II  NN   N  G    G  !!!           |
|           W    W  A    A  R    R  N N  N  II  N N  N  G       !!!           |
|           W WW W  AAAAAA  RRRRR   N  N N  II  N  N N  G  GGG   !            |
|           WW  WW  A    A  R   R   N   NN  II  N   NN  G    G                |
|           W    W  A    A  R    R  N    N  II  N    N   GGGG   !!!           |
|                                                                             |
|      You have enabled k-point parallelism (KPAR>1).                         |
|      This developmental code was originally  written by Paul Kent at ORNL,  |
|      and carefully double checked in Vienna.                                |
|      GW as well as linear response parallelism added by Martijn Marsman     |
|      and Georg Kresse.                                                      |
|      Carefully verify results versus KPAR=1.                                |
|      Report problems to Paul Kent and Vienna.                               |
|                                                                             |
 ----------------------------------------------------------------------------- 

 LDA part: xc-table for Pade appr. of Perdew
 POSCAR found type information on POSCAR  Ti
 POSCAR found :  1 types and      48 ions
 POSCAR, INCAR and KPOINTS ok, starting setup
 FFT: planning ...
 WAVECAR not read
 entering main loop
       N       E                     dE             d eps       ncg     rms          rms(c)
DAV:   1     0.908927352907E+03    0.90893E+03   -0.54816E+04  4880   0.112E+03
DAV:   2    -0.246654461977E+03   -0.11556E+04   -0.11155E+04  4880   0.251E+02
DAV:   3    -0.415188414265E+03   -0.16853E+03   -0.15899E+03  7670   0.856E+01
DAV:   4    -0.430186271449E+03   -0.14998E+02   -0.14258E+02  7760   0.274E+01
DAV:   5    -0.431101082666E+03   -0.91481E+00   -0.87940E+00  7816   0.570E+00    0.808E+01
DAV:   6    -0.855178148667E+03   -0.42408E+03   -0.51182E+03  9586   0.107E+02    0.129E+02
DAV:   7    -0.396254520115E+03    0.45892E+03   -0.69194E+03  8898   0.161E+02    0.475E+01
DAV:   8    -0.366372091972E+03    0.29882E+02   -0.99691E+02  7872   0.998E+01    0.343E+01
DAV:   9    -0.368414907764E+03   -0.20428E+01   -0.19554E+02  8144   0.324E+01    0.295E+01
DAV:  10    -0.369781325031E+03   -0.13664E+01   -0.22389E+01  8192   0.901E+00    0.304E+01
DAV:  11    -0.369656748881E+03    0.12458E+00   -0.13038E+00  7960   0.197E+00    0.303E+01
DAV:  12    -0.366285921081E+03    0.33708E+01   -0.56318E+00  7952   0.556E+00    0.249E+01
DAV:  13    -0.356366825211E+03    0.99191E+01   -0.23931E+01  6104   0.162E+01    0.124E+01
DAV:  14    -0.359047804157E+03   -0.26810E+01   -0.13316E+01  7752   0.953E+00    0.176E+01
DAV:  15    -0.357492692742E+03    0.15551E+01   -0.55016E+00  7496   0.641E+00    0.156E+01
DAV:  16    -0.354505293819E+03    0.29874E+01   -0.99677E+00  7800   0.802E+00    0.914E+00
DAV:  17    -0.353953828721E+03    0.55147E+00   -0.32515E+00  8264   0.306E+00    0.506E+00
DAV:  18    -0.353755069162E+03    0.19876E+00   -0.53144E-01  8136   0.127E+00    0.374E+00
DAV:  19    -0.353572430566E+03    0.18264E+00   -0.40254E-01  6752   0.173E+00    0.222E+00
DAV:  20    -0.353524329057E+03    0.48102E-01   -0.18475E-01  8128   0.106E+00    0.184E+00
DAV:  21    -0.353477763874E+03    0.46565E-01   -0.33302E-01  7768   0.139E+00    0.503E-01
DAV:  22    -0.353483844134E+03   -0.60803E-02   -0.10538E-01  7728   0.627E-01    0.945E-01
DAV:  23    -0.353470464516E+03    0.13380E-01   -0.12958E-01  7736   0.891E-01    0.290E-01
DAV:  24    -0.353474625963E+03   -0.41614E-02   -0.17035E-02  8480   0.241E-01    0.568E-01
DAV:  25    -0.353470793759E+03    0.38322E-02   -0.18247E-02  7752   0.310E-01    0.197E-01
DAV:  26    -0.353471186310E+03   -0.39255E-03   -0.10204E-02  8008   0.257E-01    0.146E-01
DAV:  27    -0.353471626814E+03   -0.44050E-03   -0.10738E-03  7264   0.814E-02    0.813E-02
DAV:  28    -0.353472146624E+03   -0.51981E-03   -0.46284E-04  7760   0.549E-02    0.556E-02
DAV:  29    -0.353472200615E+03   -0.53991E-04   -0.30698E-04  7416   0.479E-02    0.149E-02
DAV:  30    -0.353472317437E+03   -0.11682E-03   -0.63982E-05  6616   0.242E-02    0.347E-02
DAV:  31    -0.353472330716E+03   -0.13280E-04   -0.34491E-05  5926   0.161E-02    0.185E-02
DAV:  32    -0.353472334882E+03   -0.41654E-05   -0.74123E-06  3952   0.894E-03
   1 F= -.35347233E+03 E0= -.35341995E+03  d E =-.104776E+00
 running on   16 total cores
 distrk:  each k-point on    8 cores,    2 groups
 distr:  one band on    4 cores,    2 groups
 using from now: INCAR     
 vasp.5.4.4.18Apr17-6-g9f103f2a35 (build Nov 27 2019 20:08:17) complex          
  
 POSCAR found type information on POSCAR  Ti
 POSCAR found :  1 types and      36 ions
 scaLAPACK will be used

 ----------------------------------------------------------------------------- 
|                                                                             |
|           W    W    AA    RRRRR   N    N  II  N    N   GGGG   !!!           |
|           W    W   A  A   R    R  NN   N  II  NN   N  G    G  !!!           |
|           W    W  A    A  R    R  N N  N  II  N N  N  G       !!!           |
|           W WW W  AAAAAA  RRRRR   N  N N  II  N  N N  G  GGG   !            |
|           WW  WW  A    A  R   R   N   NN  II  N   NN  G    G                |
|           W    W  A    A  R    R  N    N  II  N    N   GGGG   !!!           |
|                                                                             |
|      You have enabled k-point parallelism (KPAR>1).                         |
|      This developmental code was originally  written by Paul Kent at ORNL,  |
|      and carefully double checked in Vienna.                                |
|      GW as well as linear response parallelism added by Martijn Marsman     |
|      and Georg Kresse.                                                      |
|      Carefully verify results versus KPAR=1.                                |
|      Report problems to Paul Kent and Vienna.                               |
|                                                                             |
 ----------------------------------------------------------------------------- 

 LDA part: xc-table for Pade appr. of Perdew
 POSCAR found type information on POSCAR  Ti
 POSCAR found :  1 types and      36 ions
 POSCAR, INCAR and KPOINTS ok, starting setup
 FFT: planning ...
 WAVECAR not read
 WARNING: random wavefunctions but no delay for mixing, default for NELMDL
 entering main loop
       N       E                     dE             d eps       ncg     rms          rms(c)
DAV:   1     0.753191720027E+03    0.75319E+03   -0.40860E+04  2208   0.107E+03
DAV:   2    -0.192602456710E+03   -0.94579E+03   -0.90909E+03  2220   0.245E+02
DAV:   3    -0.325256319131E+03   -0.13265E+03   -0.12267E+03  3336   0.869E+01
DAV:   4    -0.334348958297E+03   -0.90926E+01   -0.83890E+01  3176   0.282E+01
DAV:   5    -0.334893509654E+03   -0.54455E+00   -0.52063E+00  3624   0.563E+00    0.799E+01
DAV:   6    -0.522077946859E+03   -0.18718E+03   -0.27402E+03  4180   0.926E+01    0.109E+02
DAV:   7    -0.307461682083E+03    0.21462E+03   -0.48678E+03  4116   0.172E+02    0.398E+01
DAV:   8    -0.283306652753E+03    0.24155E+02   -0.53409E+02  3176   0.810E+01    0.364E+01
DAV:   9    -0.279681726648E+03    0.36249E+01   -0.34407E+01  3648   0.146E+01    0.316E+01
DAV:  10    -0.277775797846E+03    0.19059E+01   -0.22141E+00  3552   0.337E+00    0.298E+01
DAV:  11    -0.271110006616E+03    0.66658E+01   -0.70468E+00  3256   0.861E+00    0.217E+01
DAV:  12    -0.262922913910E+03    0.81871E+01   -0.25870E+01  3384   0.165E+01    0.625E+00
DAV:  13    -0.263353772643E+03   -0.43086E+00   -0.19161E+00  3400   0.411E+00    0.653E+00
DAV:  14    -0.262771512380E+03    0.58226E+00   -0.11593E+00  3436   0.309E+00    0.343E+00
DAV:  15    -0.262575148941E+03    0.19636E+00   -0.75422E-01  2904   0.320E+00    0.134E+00
DAV:  16    -0.262562263148E+03    0.12886E-01   -0.13222E-01  3584   0.898E-01    0.460E-01
DAV:  17    -0.262567904832E+03   -0.56417E-02   -0.13594E-02  3536   0.312E-01    0.438E-01
DAV:  18    -0.262573969035E+03   -0.60642E-02   -0.21263E-02  3320   0.374E-01    0.136E-01
DAV:  19    -0.262576335298E+03   -0.23663E-02   -0.96266E-03  3368   0.329E-01    0.244E-01
DAV:  20    -0.262578452224E+03   -0.21169E-02   -0.59193E-03  3120   0.230E-01    0.513E-02
DAV:  21    -0.262579295141E+03   -0.84292E-03   -0.53366E-04  3048   0.734E-02    0.206E-02
DAV:  22    -0.262580014391E+03   -0.71925E-03   -0.52573E-04  3088   0.685E-02    0.444E-02
DAV:  23    -0.262580148526E+03   -0.13413E-03   -0.39521E-04  3248   0.620E-02    0.132E-02
DAV:  24    -0.262580205517E+03   -0.56991E-04   -0.20283E-04  3392   0.405E-02    0.375E-02
DAV:  25    -0.262580260898E+03   -0.55381E-04   -0.16176E-04  3256   0.388E-02    0.483E-03
DAV:  26    -0.262580309579E+03   -0.48681E-04   -0.15829E-05  1888   0.829E-03    0.742E-03
DAV:  27    -0.262580374380E+03   -0.64801E-04   -0.59597E-06  1688   0.749E-03    0.391E-03
DAV:  28    -0.262580404295E+03   -0.29915E-04   -0.36543E-06  1752   0.353E-03    0.235E-03
DAV:  29    -0.262580417635E+03   -0.13340E-04   -0.18320E-06  1568   0.285E-03    0.229E-03
DAV:  30    -0.262580423740E+03   -0.61043E-05   -0.82386E-07  1504   0.257E-03    0.219E-03
DAV:  31    -0.262580424330E+03   -0.59008E-06   -0.19368E-07  1352   0.156E-03
   1 F= -.26258042E+03 E0= -.26252758E+03  d E =-.105687E+00
 running on   16 total cores
 distrk:  each k-point on    8 cores,    2 groups
 distr:  one band on    4 cores,    2 groups
 using from now: INCAR     
 vasp.5.4.4.18Apr17-6-g9f103f2a35 (build Nov 27 2019 20:08:17) complex          
  
 POSCAR found type information on POSCAR  Ti
 POSCAR found :  1 types and      84 ions
 scaLAPACK will be used

 ----------------------------------------------------------------------------- 
|                                                                             |
|           W    W    AA    RRRRR   N    N  II  N    N   GGGG   !!!           |
|           W    W   A  A   R    R  NN   N  II  NN   N  G    G  !!!           |
|           W    W  A    A  R    R  N N  N  II  N N  N  G       !!!           |
|           W WW W  AAAAAA  RRRRR   N  N N  II  N  N N  G  GGG   !            |
|           WW  WW  A    A  R   R   N   NN  II  N   NN  G    G                |
|           W    W  A    A  R    R  N    N  II  N    N   GGGG   !!!           |
|                                                                             |
|      You have enabled k-point parallelism (KPAR>1).                         |
|      This developmental code was originally  written by Paul Kent at ORNL,  |
|      and carefully double checked in Vienna.                                |
|      GW as well as linear response parallelism added by Martijn Marsman     |
|      and Georg Kresse.                                                      |
|      Carefully verify results versus KPAR=1.                                |
|      Report problems to Paul Kent and Vienna.                               |
|                                                                             |
 ----------------------------------------------------------------------------- 

 LDA part: xc-table for Pade appr. of Perdew
 POSCAR found type information on POSCAR  Ti
 POSCAR found :  1 types and      84 ions
 POSCAR, INCAR and KPOINTS ok, starting setup
 FFT: planning ...
 WAVECAR not read
 WARNING: random wavefunctions but no delay for mixing, default for NELMDL
 entering main loop
       N       E                     dE             d eps       ncg     rms          rms(c)
DAV:   1     0.139063264475E+04    0.13906E+04   -0.95854E+04  8480   0.122E+03
DAV:   2    -0.455027514209E+03   -0.18457E+04   -0.17914E+04  8480   0.272E+02
DAV:   3    -0.738162743854E+03   -0.28314E+03   -0.26468E+03 12808   0.947E+01
DAV:   4    -0.760766012535E+03   -0.22603E+02   -0.21333E+02 12536   0.281E+01
DAV:   5    -0.761633680027E+03   -0.86767E+00   -0.83869E+00 12296   0.433E+00    0.113E+02
DAV:   6    -0.197295408658E+04   -0.12113E+04   -0.12436E+04 16292   0.164E+02    0.108E+02
DAV:   7    -0.143163681457E+04    0.54132E+03   -0.19441E+04 15656   0.164E+02    0.133E+02
DAV:   8    -0.584817142154E+03    0.84682E+03   -0.54779E+03 14704   0.179E+02    0.474E+01
DAV:   9    -0.706275108523E+03   -0.12146E+03   -0.21584E+03 15048   0.829E+01    0.583E+01
DAV:  10    -0.672659816848E+03    0.33615E+02   -0.59331E+02 14376   0.590E+01    0.438E+01
DAV:  11    -0.665149171928E+03    0.75106E+01   -0.10102E+02 14952   0.268E+01    0.399E+01
DAV:  12    -0.650833803824E+03    0.14315E+02   -0.55266E+01 14400   0.165E+01    0.312E+01
DAV:  13    -0.651192702912E+03   -0.35890E+00   -0.81711E+01 14424   0.175E+01    0.281E+01
DAV:  14    -0.644819112890E+03    0.63736E+01   -0.18997E+01 13400   0.103E+01    0.217E+01
DAV:  15    -0.642120244628E+03    0.26989E+01   -0.31791E+00 12872   0.470E+00    0.187E+01
DAV:  16    -0.642095053457E+03    0.25191E-01   -0.29462E+00 13144   0.369E+00    0.185E+01
DAV:  17    -0.638883713307E+03    0.32113E+01   -0.27894E+00 13504   0.343E+00    0.150E+01
DAV:  18    -0.636002321888E+03    0.28814E+01   -0.37259E+00 13512   0.368E+00    0.999E+00
DAV:  19    -0.634554967214E+03    0.14474E+01   -0.40132E+00 13552   0.422E+00    0.637E+00
DAV:  20    -0.634129045012E+03    0.42592E+00   -0.18448E+00 13496   0.283E+00    0.475E+00
DAV:  21    -0.634051763739E+03    0.77281E-01   -0.39227E-01 12736   0.155E+00    0.409E+00
DAV:  22    -0.633895219555E+03    0.15654E+00   -0.51928E-01 13088   0.153E+00    0.309E+00
DAV:  23    -0.633777270961E+03    0.11795E+00   -0.53508E-01 13256   0.152E+00    0.203E+00
DAV:  24    -0.633754405345E+03    0.22866E-01   -0.26932E-01 13032   0.114E+00    0.159E+00
DAV:  25    -0.633721583325E+03    0.32822E-01   -0.96762E-02 13032   0.677E-01    0.996E-01
DAV:  26    -0.633729122954E+03   -0.75396E-02   -0.47406E-02 12880   0.508E-01    0.107E+00
DAV:  27    -0.633722735045E+03    0.63879E-02   -0.29967E-02 13176   0.395E-01    0.930E-01
DAV:  28    -0.633707334821E+03    0.15400E-01   -0.35079E-02 13696   0.395E-01    0.437E-01
DAV:  29    -0.633703975721E+03    0.33591E-02   -0.12358E-02 13560   0.234E-01    0.185E-01
DAV:  30    -0.633703704041E+03    0.27168E-03   -0.40856E-03 13032   0.139E-01    0.138E-01
DAV:  31    -0.633703644320E+03    0.59721E-04   -0.17317E-03 12512   0.108E-01    0.899E-02
DAV:  32    -0.633703756158E+03   -0.11184E-03   -0.55789E-04 13352   0.501E-02    0.105E-01
DAV:  33    -0.633703588405E+03    0.16775E-03   -0.36168E-04 12992   0.431E-02    0.685E-02
DAV:  34    -0.633703517104E+03    0.71301E-04   -0.77483E-04 13152   0.636E-02    0.548E-02
DAV:  35    -0.633703507062E+03    0.10042E-04   -0.12131E-04 12416   0.268E-02    0.439E-02
DAV:  36    -0.633703485897E+03    0.21164E-04   -0.94456E-05 11312   0.250E-02    0.156E-02
DAV:  37    -0.633703485828E+03    0.69049E-07   -0.18542E-05  8248   0.107E-02
   1 F= -.63370349E+03 E0= -.63362190E+03  d E =-.163163E+00

DISTANCE=2.050
E_alpha= -353.472391  E_beta= -262.580190  E_total= -637.319076 
W_seq=-21.266495

DISTANCE=2.100
E_alpha= -353.472425  E_beta= -262.580398  E_total= -637.559641 
W_seq=-21.506818

DISTANCE=2.150
E_alpha= -353.472390  E_beta= -262.580612  E_total= -637.720057 
W_seq=-21.667055

DISTANCE=2.200
E_alpha= -353.472459  E_beta= -262.580472  E_total= -637.807549 
W_seq=-21.754618

DISTANCE=2.250
E_alpha= -353.472452  E_beta= -262.580186  E_total= -637.827000 
W_seq=-21.774362

DISTANCE=2.300
E_alpha= -353.472131  E_beta= -262.580209  E_total= -637.783188 
W_seq=-21.730848

DISTANCE=2.350
E_alpha= -353.472359  E_beta= -262.580464  E_total= -637.681741 
W_seq=-21.628918

DISTANCE=2.400
E_alpha= -353.473140  E_beta= -262.581377  E_total= -637.527632 
W_seq=-21.473115

DISTANCE=2.450
E_alpha= -353.473642  E_beta= -262.582205  E_total= -637.325171 
W_seq=-21.269324

DISTANCE=2.500
E_alpha= -353.472508  E_beta= -262.580757  E_total= -637.076745 
W_seq=-21.023480

DISTANCE=2.550
E_alpha= -353.472082  E_beta= -262.580295  E_total= -636.794883 
W_seq=-20.742506

DISTANCE=2.600
E_alpha= -353.472012  E_beta= -262.580124  E_total= -636.484869 
W_seq=-20.432733

DISTANCE=2.650
E_alpha= -353.472440  E_beta= -262.580116  E_total= -636.150499 
W_seq=-20.097943

DISTANCE=2.700
E_alpha= -353.472139  E_beta= -262.580495  E_total= -635.793314 
W_seq=-19.740680

DISTANCE=2.750
E_alpha= -353.472008  E_beta= -262.580479  E_total= -635.414256 
W_seq=-19.361769

DISTANCE=2.800
E_alpha= -353.472326  E_beta= -262.580192  E_total= -635.014668 
W_seq=-18.962150

DISTANCE=2.850
E_alpha= -353.472259  E_beta= -262.580215  E_total= -634.595246 
W_seq=-18.542772

DISTANCE=2.900
E_alpha= -353.472250  E_beta= -262.580516  E_total= -634.157517 
W_seq=-18.104751

DISTANCE=2.950
E_alpha= -353.472335  E_beta= -262.580424  E_total= -633.703486 
W_seq=-17.650727

