<?xml version="1.0" encoding="ISO-8859-1"?>
<modeling>
 <generator>
  <i name="program" type="string">vasp </i>
  <i name="version" type="string">5.4.4.18Apr17-6-g9f103f2a35  </i>
  <i name="subversion" type="string">(build Apr 25 2023 23:32:12) complex            parallel </i>
  <i name="platform" type="string">LinuxGNU </i>
  <i name="date" type="string">2024 07 17 </i>
  <i name="time" type="string">12:22:41 </i>
 </generator>
 <incar>
  <i type="int" name="ISTART">     1</i>
  <i type="string" name="PREC">normal</i>
  <i type="string" name="ALGO"> Normal</i>
  <i type="logical" name="LSORBIT"> F  </i>
  <i type="int" name="ISPIN">     1</i>
  <i type="int" name="ICHARG">    11</i>
  <i type="int" name="NELM">   300</i>
  <i type="int" name="IBRION">    -1</i>
  <i name="EDIFF">      0.00000100</i>
  <i type="int" name="NSW">     0</i>
  <i type="int" name="ISIF">     2</i>
  <i name="ENCUT">    500.00000000</i>
  <i type="int" name="NBANDS">   600</i>
  <i type="int" name="NEDOS">  1500</i>
  <i type="string" name="LREAL"> Auto</i>
  <i name="EMIN">    -15.00000000</i>
  <i name="EMAX">     15.00000000</i>
  <i type="int" name="ISMEAR">    -5</i>
  <i name="SIGMA">      0.20000000</i>
  <i type="logical" name="LWAVE"> T  </i>
  <i type="logical" name="LCHARG"> T  </i>
  <i type="logical" name="LVTOT"> F  </i>
  <i type="logical" name="LVHAR"> F  </i>
  <i type="int" name="LORBIT">    10</i>
  <i type="logical" name="LELF"> F  </i>
  <v type="int" name="KPOINT_BSE">    -1     0     0     0</v>
  <i type="int" name="NELM">   300</i>
  <i type="logical" name="LDAU"> F  </i>
 </incar>
 <structure name="primitive_cell" >
  <crystal>
   <varray name="basis" >
    <v>       3.07500000       0.00000000       0.00000000 </v>
    <v>       0.00000000      16.00000000       0.00000000 </v>
    <v>       0.00000000       0.00000000      45.00000000 </v>
   </varray>
   <i name="volume">   2214.00000000 </i>
   <varray name="rec_basis" >
    <v>       0.32520325      -0.00000000       0.00000000 </v>
    <v>       0.00000000       0.06250000       0.00000000 </v>
    <v>      -0.00000000      -0.00000000       0.02222222 </v>
   </varray>
  </crystal>
  <varray name="positions" >
   <v>       0.31798000      -0.14583000       0.17713000 </v>
   <v>       0.32430000      -0.03874000       0.15327000 </v>
   <v>      -0.16841000      -0.20457000       0.15292000 </v>
   <v>       0.32492000      -0.25773000       0.20097000 </v>
   <v>      -0.18252000      -0.09027000       0.20167000 </v>
   <v>      -0.17535000      -0.09267000       0.12907000 </v>
   <v>      -0.17557000      -0.20216000       0.22551000 </v>
   <v>       0.31714000      -0.03634000       0.22587000 </v>
   <v>       0.33209000      -0.26013000       0.12838000 </v>
   <v>      -0.17473000      -0.31165000       0.17678000 </v>
   <v>      -0.15996000       0.02336000       0.17677000 </v>
   <v>       0.32408000      -0.14824000       0.24971000 </v>
   <v>       0.32514000      -0.14823000       0.10453000 </v>
   <v>       0.35446000       0.07563000       0.20097000 </v>
   <v>       0.33907000      -0.37206000       0.15327000 </v>
   <v>       0.36162000       0.07323000       0.12838000 </v>
   <v>       0.33191000      -0.36966000       0.22587000 </v>
   <v>      -0.15386000       0.02096000       0.24936000 </v>
   <v>      -0.15280000       0.02096000       0.10418000 </v>
   <v>      -0.16863000      -0.31406000       0.24936000 </v>
   <v>      -0.16757000      -0.31406000       0.10418000 </v>
   <v>       0.31820000      -0.03633000       0.08069000 </v>
   <v>      -0.17451000      -0.20216000       0.08033000 </v>
   <v>      -0.17642000      -0.09267000       0.27425000 </v>
   <v>       0.33102000      -0.26013000       0.27356000 </v>
   <v>      -0.13887000       0.12879000       0.15292000 </v>
   <v>      -0.16775000      -0.42359000       0.20167000 </v>
   <v>      -0.14604000       0.13119000       0.22551000 </v>
   <v>      -0.16059000      -0.42599000       0.12907000 </v>
   <v>       0.33275000      -0.47915000       0.17713000 </v>
   <v>       0.34752000       0.18753000       0.17713000 </v>
   <v>       0.36056000       0.07322000       0.27356000 </v>
   <v>       0.33297000      -0.36965000       0.08069000 </v>
   <v>      -0.18145000      -0.09026000       0.05649000 </v>
   <v>       0.32599000      -0.25772000       0.05579000 </v>
   <v>       0.35362000       0.18512000       0.24971000 </v>
   <v>       0.35468000       0.18513000       0.10453000 </v>
   <v>      -0.18815000      -0.23422000       0.30843000 </v>
   <v>       0.33885000      -0.48156000       0.24971000 </v>
   <v>       0.33991000      -0.48155000       0.10453000 </v>
   <v>       0.32387000      -0.09391000       0.31617000 </v>
   <v>      -0.14497000       0.13120000       0.08033000 </v>
   <v>      -0.16165000      -0.42599000       0.27425000 </v>
   <v>      -0.15298000       0.24309000       0.20167000 </v>
   <v>       0.35553000       0.07564000       0.05579000 </v>
   <v>      -0.15364000       0.46211000       0.15292000 </v>
   <v>       0.31905000      -0.14582000       0.03195000 </v>
   <v>      -0.14582000       0.24069000       0.12907000 </v>
   <v>      -0.16081000       0.46452000       0.22551000 </v>
   <v>      -0.16331000       0.05478000       0.31127000 </v>
   <v>       0.35384000       0.29462000       0.15327000 </v>
   <v>      -0.16668000      -0.42358000       0.05649000 </v>
   <v>       0.33969000       0.40895000       0.20097000 </v>
   <v>      -0.17366000      -0.31165000       0.03160000 </v>
   <v>      -0.15890000       0.02337000       0.03159000 </v>
   <v>       0.34668000       0.29702000       0.22587000 </v>
   <v>       0.34686000       0.40655000       0.12838000 </v>
   <v>      -0.14688000       0.24068000       0.27425000 </v>
   <v>      -0.15974000       0.46452000       0.08033000 </v>
   <v>       0.32536000      -0.03873000       0.00809000 </v>
   <v>      -0.16735000      -0.20456000       0.00774000 </v>
   <v>       0.33043000      -0.25750000       0.34822000 </v>
   <v>      -0.15996000       0.35503000       0.17677000 </v>
   <v>      -0.19107000      -0.11915000       0.35567000 </v>
   <v>       0.35304000       0.02866000       0.35102000 </v>
   <v>       0.34774000       0.29703000       0.08069000 </v>
   <v>       0.34895000       0.19178000       0.31861000 </v>
   <v>       0.34579000       0.40655000       0.27356000 </v>
   <v>      -0.15191000       0.24310000       0.05649000 </v>
   <v>       0.34013000      -0.37206000       0.00809000 </v>
   <v>       0.33382000      -0.47914000       0.03195000 </v>
   <v>       0.34859000       0.18754000       0.03195000 </v>
   <v>      -0.18181000      -0.39451000       0.34087000 </v>
   <v>      -0.15386000       0.35262000       0.24936000 </v>
   <v>      -0.15280000       0.35262000       0.10418000 </v>
   <v>      -0.13781000       0.12880000       0.00774000 </v>
   <v>       0.34076000       0.40896000       0.05579000 </v>
   <v>       0.33969000       0.46714000       0.33342000 </v>
   <v>      -0.16847000       0.16701000       0.35847000 </v>
   <v>       0.32527000      -0.14526000       0.39542000 </v>
   <v>      -0.18698000      -0.28228000       0.38808000 </v>
   <v>      -0.15258000       0.46212000       0.00774000 </v>
   <v>      -0.19692000       0.00639000       0.39023000 </v>
   <v>       0.33453000      -0.42062000       0.38062000 </v>
   <v>      -0.17257000       0.33013000       0.32607000 </v>
   <v>       0.35490000       0.29462000       0.00809000 </v>
   <v>      -0.15890000       0.35503000       0.03159000 </v>
   <v>       0.34788000       0.14090000       0.39822000 </v>
   <v>      -0.17773000       0.44236000       0.37328000 </v>
   <v>       0.34378000       0.30402000       0.36582000 </v>
   <v>       0.32936000      -0.30839000       0.42783000 </v>
   <v>      -0.19214000      -0.17004000       0.43528000 </v>
   <v>      -0.18290000      -0.44540000       0.42048000 </v>
   <v>       0.32010000      -0.03303000       0.44263000 </v>
   <v>      -0.17364000       0.27924000       0.40568000 </v>
   <v>      -0.16955000       0.11612000       0.43809000 </v>
   <v>       0.33862000       0.41625000       0.41302000 </v>
   <v>       0.32420000      -0.19615000       0.47504000 </v>
   <v>      -0.18806000      -0.33317000       0.46770000 </v>
   <v>       0.34271000       0.25313000       0.44543000 </v>
   <v>       0.33345000      -0.47152000       0.46024000 </v>
   <v>      -0.19731000      -0.05781000       0.48250000 </v>
   <v>       0.34679000       0.09001000       0.47784000 </v>
   <v>      -0.17880000       0.39148000       0.45289000 </v>
   <v>      -0.17471000       0.22835000       0.48530000 </v>
   <v>       0.32829000      -0.35928000      -0.49256000 </v>
   <v>      -0.19323000      -0.22093000      -0.48510000 </v>
   <v>       0.31903000      -0.08392000      -0.47775000 </v>
   <v>      -0.18397000      -0.49629000      -0.49990000 </v>
   <v>      -0.17062000       0.06524000      -0.48230000 </v>
   <v>       0.33755000       0.36537000       0.49264000 </v>
   <v>       0.34163000       0.20224000      -0.47495000 </v>
   <v>       0.32312000      -0.24705000      -0.44535000 </v>
   <v>      -0.18913000      -0.38405000      -0.45270000 </v>
   <v>       0.34572000       0.03913000      -0.44255000 </v>
   <v>      -0.19839000      -0.10870000      -0.43789000 </v>
   <v>       0.33238000       0.47760000      -0.46015000 </v>
   <v>      -0.17988000       0.34059000      -0.46750000 </v>
   <v>      -0.17578000       0.17747000      -0.43508000 </v>
   <v>       0.32722000      -0.41016000      -0.41294000 </v>
   <v>      -0.19430000      -0.27182000      -0.40548000 </v>
   <v>       0.31796000      -0.13480000      -0.39814000 </v>
   <v>      -0.17169000       0.01435000      -0.40268000 </v>
   <v>       0.33646000       0.31448000      -0.42775000 </v>
   <v>      -0.18504000       0.45282000      -0.42028000 </v>
   <v>       0.34056000       0.15136000      -0.39534000 </v>
  </varray>
 </structure>
 <varray name="primitive_index" >
  <v type="int" >        1 </v>
  <v type="int" >       95 </v>
  <v type="int" >       94 </v>
  <v type="int" >       92 </v>
  <v type="int" >       91 </v>
  <v type="int" >       16 </v>
  <v type="int" >        3 </v>
  <v type="int" >        2 </v>
  <v type="int" >       15 </v>
  <v type="int" >        6 </v>
  <v type="int" >       29 </v>
  <v type="int" >       93 </v>
  <v type="int" >      110 </v>
  <v type="int" >      104 </v>
  <v type="int" >      101 </v>
  <v type="int" >       27 </v>
  <v type="int" >        5 </v>
  <v type="int" >      125 </v>
  <v type="int" >      126 </v>
  <v type="int" >       97 </v>
  <v type="int" >      114 </v>
  <v type="int" >       13 </v>
  <v type="int" >       14 </v>
  <v type="int" >       86 </v>
  <v type="int" >       85 </v>
  <v type="int" >      106 </v>
  <v type="int" >       96 </v>
  <v type="int" >       11 </v>
  <v type="int" >       22 </v>
  <v type="int" >        4 </v>
  <v type="int" >        8 </v>
  <v type="int" >       89 </v>
  <v type="int" >       18 </v>
  <v type="int" >      108 </v>
  <v type="int" >      109 </v>
  <v type="int" >      105 </v>
  <v type="int" >      122 </v>
  <v type="int" >       84 </v>
  <v type="int" >       99 </v>
  <v type="int" >      116 </v>
  <v type="int" >       83 </v>
  <v type="int" >       26 </v>
  <v type="int" >       88 </v>
  <v type="int" >      102 </v>
  <v type="int" >      121 </v>
  <v type="int" >      100 </v>
  <v type="int" >       12 </v>
  <v type="int" >       28 </v>
  <v type="int" >        7 </v>
  <v type="int" >       60 </v>
  <v type="int" >      107 </v>
  <v type="int" >      113 </v>
  <v type="int" >       98 </v>
  <v type="int" >       19 </v>
  <v type="int" >       30 </v>
  <v type="int" >        9 </v>
  <v type="int" >       21 </v>
  <v type="int" >       90 </v>
  <v type="int" >       20 </v>
  <v type="int" >      112 </v>
  <v type="int" >      111 </v>
  <v type="int" >       43 </v>
  <v type="int" >       10 </v>
  <v type="int" >       69 </v>
  <v type="int" >       31 </v>
  <v type="int" >       24 </v>
  <v type="int" >       38 </v>
  <v type="int" >       87 </v>
  <v type="int" >      119 </v>
  <v type="int" >      118 </v>
  <v type="int" >       17 </v>
  <v type="int" >       23 </v>
  <v type="int" >       65 </v>
  <v type="int" >      103 </v>
  <v type="int" >      120 </v>
  <v type="int" >      123 </v>
  <v type="int" >      115 </v>
  <v type="int" >       40 </v>
  <v type="int" >       61 </v>
  <v type="int" >       46 </v>
  <v type="int" >       68 </v>
  <v type="int" >      117 </v>
  <v type="int" >       77 </v>
  <v type="int" >       42 </v>
  <v type="int" >       62 </v>
  <v type="int" >      124 </v>
  <v type="int" >       25 </v>
  <v type="int" >       32 </v>
  <v type="int" >       64 </v>
  <v type="int" >       39 </v>
  <v type="int" >       45 </v>
  <v type="int" >       76 </v>
  <v type="int" >       67 </v>
  <v type="int" >       53 </v>
  <v type="int" >       63 </v>
  <v type="int" >       57 </v>
  <v type="int" >       41 </v>
  <v type="int" >       52 </v>
  <v type="int" >       75 </v>
  <v type="int" >       34 </v>
  <v type="int" >       44 </v>
  <v type="int" >       80 </v>
  <v type="int" >       33 </v>
  <v type="int" >       66 </v>
  <v type="int" >       59 </v>
  <v type="int" >       51 </v>
  <v type="int" >       79 </v>
  <v type="int" >       55 </v>
  <v type="int" >       74 </v>
  <v type="int" >       58 </v>
  <v type="int" >       37 </v>
  <v type="int" >       36 </v>
  <v type="int" >       54 </v>
  <v type="int" >       78 </v>
  <v type="int" >       35 </v>
  <v type="int" >       82 </v>
  <v type="int" >       49 </v>
  <v type="int" >       72 </v>
  <v type="int" >       71 </v>
  <v type="int" >       50 </v>
  <v type="int" >       81 </v>
  <v type="int" >       56 </v>
  <v type="int" >       70 </v>
  <v type="int" >       48 </v>
  <v type="int" >       73 </v>
  <v type="int" >       47 </v>
 </varray>
 <kpoints>
  <generation param="Monkhorst-Pack">
   <v type="int" name="divisions">      16        6        2 </v>
   <v name="usershift">      0.00000000       0.00000000       0.00000000 </v>
   <v name="genvec1">      0.06250000      -0.00000000       0.00000000 </v>
   <v name="genvec2">      0.00000000       0.16666667       0.00000000 </v>
   <v name="genvec3">      0.00000000       0.00000000       0.50000000 </v>
   <v name="shift">      0.50000000       0.50000000       0.50000000 </v>
  </generation>
  <varray name="kpointlist" >
   <v>       0.03125000       0.08333333       0.25000000 </v>
   <v>       0.09375000       0.08333333       0.25000000 </v>
   <v>       0.15625000       0.08333333       0.25000000 </v>
   <v>       0.21875000       0.08333333       0.25000000 </v>
   <v>       0.28125000       0.08333333       0.25000000 </v>
   <v>       0.34375000       0.08333333       0.25000000 </v>
   <v>       0.40625000       0.08333333       0.25000000 </v>
   <v>       0.46875000       0.08333333       0.25000000 </v>
   <v>      -0.46875000       0.08333333       0.25000000 </v>
   <v>      -0.40625000       0.08333333       0.25000000 </v>
   <v>      -0.34375000       0.08333333       0.25000000 </v>
   <v>      -0.28125000       0.08333333       0.25000000 </v>
   <v>      -0.21875000       0.08333333       0.25000000 </v>
   <v>      -0.15625000       0.08333333       0.25000000 </v>
   <v>      -0.09375000       0.08333333       0.25000000 </v>
   <v>      -0.03125000       0.08333333       0.25000000 </v>
   <v>       0.03125000       0.25000000       0.25000000 </v>
   <v>       0.09375000       0.25000000       0.25000000 </v>
   <v>       0.15625000       0.25000000       0.25000000 </v>
   <v>       0.21875000       0.25000000       0.25000000 </v>
   <v>       0.28125000       0.25000000       0.25000000 </v>
   <v>       0.34375000       0.25000000       0.25000000 </v>
   <v>       0.40625000       0.25000000       0.25000000 </v>
   <v>       0.46875000       0.25000000       0.25000000 </v>
   <v>      -0.46875000       0.25000000       0.25000000 </v>
   <v>      -0.40625000       0.25000000       0.25000000 </v>
   <v>      -0.34375000       0.25000000       0.25000000 </v>
   <v>      -0.28125000       0.25000000       0.25000000 </v>
   <v>      -0.21875000       0.25000000       0.25000000 </v>
   <v>      -0.15625000       0.25000000       0.25000000 </v>
   <v>      -0.09375000       0.25000000       0.25000000 </v>
   <v>      -0.03125000       0.25000000       0.25000000 </v>
   <v>       0.03125000       0.41666667       0.25000000 </v>
   <v>       0.09375000       0.41666667       0.25000000 </v>
   <v>       0.15625000       0.41666667       0.25000000 </v>
   <v>       0.21875000       0.41666667       0.25000000 </v>
   <v>       0.28125000       0.41666667       0.25000000 </v>
   <v>       0.34375000       0.41666667       0.25000000 </v>
   <v>       0.40625000       0.41666667       0.25000000 </v>
   <v>       0.46875000       0.41666667       0.25000000 </v>
   <v>      -0.46875000       0.41666667       0.25000000 </v>
   <v>      -0.40625000       0.41666667       0.25000000 </v>
   <v>      -0.34375000       0.41666667       0.25000000 </v>
   <v>      -0.28125000       0.41666667       0.25000000 </v>
   <v>      -0.21875000       0.41666667       0.25000000 </v>
   <v>      -0.15625000       0.41666667       0.25000000 </v>
   <v>      -0.09375000       0.41666667       0.25000000 </v>
   <v>      -0.03125000       0.41666667       0.25000000 </v>
   <v>       0.03125000      -0.41666667       0.25000000 </v>
   <v>       0.09375000      -0.41666667       0.25000000 </v>
   <v>       0.15625000      -0.41666667       0.25000000 </v>
   <v>       0.21875000      -0.41666667       0.25000000 </v>
   <v>       0.28125000      -0.41666667       0.25000000 </v>
   <v>       0.34375000      -0.41666667       0.25000000 </v>
   <v>       0.40625000      -0.41666667       0.25000000 </v>
   <v>       0.46875000      -0.41666667       0.25000000 </v>
   <v>      -0.46875000      -0.41666667       0.25000000 </v>
   <v>      -0.40625000      -0.41666667       0.25000000 </v>
   <v>      -0.34375000      -0.41666667       0.25000000 </v>
   <v>      -0.28125000      -0.41666667       0.25000000 </v>
   <v>      -0.21875000      -0.41666667       0.25000000 </v>
   <v>      -0.15625000      -0.41666667       0.25000000 </v>
   <v>      -0.09375000      -0.41666667       0.25000000 </v>
   <v>      -0.03125000      -0.41666667       0.25000000 </v>
   <v>       0.03125000      -0.25000000       0.25000000 </v>
   <v>       0.09375000      -0.25000000       0.25000000 </v>
   <v>       0.15625000      -0.25000000       0.25000000 </v>
   <v>       0.21875000      -0.25000000       0.25000000 </v>
   <v>       0.28125000      -0.25000000       0.25000000 </v>
   <v>       0.34375000      -0.25000000       0.25000000 </v>
   <v>       0.40625000      -0.25000000       0.25000000 </v>
   <v>       0.46875000      -0.25000000       0.25000000 </v>
   <v>      -0.46875000      -0.25000000       0.25000000 </v>
   <v>      -0.40625000      -0.25000000       0.25000000 </v>
   <v>      -0.34375000      -0.25000000       0.25000000 </v>
   <v>      -0.28125000      -0.25000000       0.25000000 </v>
   <v>      -0.21875000      -0.25000000       0.25000000 </v>
   <v>      -0.15625000      -0.25000000       0.25000000 </v>
   <v>      -0.09375000      -0.25000000       0.25000000 </v>
   <v>      -0.03125000      -0.25000000       0.25000000 </v>
   <v>       0.03125000      -0.08333333       0.25000000 </v>
   <v>       0.09375000      -0.08333333       0.25000000 </v>
   <v>       0.15625000      -0.08333333       0.25000000 </v>
   <v>       0.21875000      -0.08333333       0.25000000 </v>
   <v>       0.28125000      -0.08333333       0.25000000 </v>
   <v>       0.34375000      -0.08333333       0.25000000 </v>
   <v>       0.40625000      -0.08333333       0.25000000 </v>
   <v>       0.46875000      -0.08333333       0.25000000 </v>
   <v>      -0.46875000      -0.08333333       0.25000000 </v>
   <v>      -0.40625000      -0.08333333       0.25000000 </v>
   <v>      -0.34375000      -0.08333333       0.25000000 </v>
   <v>      -0.28125000      -0.08333333       0.25000000 </v>
   <v>      -0.21875000      -0.08333333       0.25000000 </v>
   <v>      -0.15625000      -0.08333333       0.25000000 </v>
   <v>      -0.09375000      -0.08333333       0.25000000 </v>
   <v>      -0.03125000      -0.08333333       0.25000000 </v>
  </varray>
  <varray name="weights" >
   <v>       0.01041667 </v>
   <v>       0.01041667 </v>
   <v>       0.01041667 </v>
   <v>       0.01041667 </v>
   <v>       0.01041667 </v>
   <v>       0.01041667 </v>
   <v>       0.01041667 </v>
   <v>       0.01041667 </v>
   <v>       0.01041667 </v>
   <v>       0.01041667 </v>
   <v>       0.01041667 </v>
   <v>       0.01041667 </v>
   <v>       0.01041667 </v>
   <v>       0.01041667 </v>
   <v>       0.01041667 </v>
   <v>       0.01041667 </v>
   <v>       0.01041667 </v>
   <v>       0.01041667 </v>
   <v>       0.01041667 </v>
   <v>       0.01041667 </v>
   <v>       0.01041667 </v>
   <v>       0.01041667 </v>
   <v>       0.01041667 </v>
   <v>       0.01041667 </v>
   <v>       0.01041667 </v>
   <v>       0.01041667 </v>
   <v>       0.01041667 </v>
   <v>       0.01041667 </v>
   <v>       0.01041667 </v>
   <v>       0.01041667 </v>
   <v>       0.01041667 </v>
   <v>       0.01041667 </v>
   <v>       0.01041667 </v>
   <v>       0.01041667 </v>
   <v>       0.01041667 </v>
   <v>       0.01041667 </v>
   <v>       0.01041667 </v>
   <v>       0.01041667 </v>
   <v>       0.01041667 </v>
   <v>       0.01041667 </v>
   <v>       0.01041667 </v>
   <v>       0.01041667 </v>
   <v>       0.01041667 </v>
   <v>       0.01041667 </v>
   <v>       0.01041667 </v>
   <v>       0.01041667 </v>
   <v>       0.01041667 </v>
   <v>       0.01041667 </v>
   <v>       0.01041667 </v>
   <v>       0.01041667 </v>
   <v>       0.01041667 </v>
   <v>       0.01041667 </v>
   <v>       0.01041667 </v>
   <v>       0.01041667 </v>
   <v>       0.01041667 </v>
   <v>       0.01041667 </v>
   <v>       0.01041667 </v>
   <v>       0.01041667 </v>
   <v>       0.01041667 </v>
   <v>       0.01041667 </v>
   <v>       0.01041667 </v>
   <v>       0.01041667 </v>
   <v>       0.01041667 </v>
   <v>       0.01041667 </v>
   <v>       0.01041667 </v>
   <v>       0.01041667 </v>
   <v>       0.01041667 </v>
   <v>       0.01041667 </v>
   <v>       0.01041667 </v>
   <v>       0.01041667 </v>
   <v>       0.01041667 </v>
   <v>       0.01041667 </v>
   <v>       0.01041667 </v>
   <v>       0.01041667 </v>
   <v>       0.01041667 </v>
   <v>       0.01041667 </v>
   <v>       0.01041667 </v>
   <v>       0.01041667 </v>
   <v>       0.01041667 </v>
   <v>       0.01041667 </v>
   <v>       0.01041667 </v>
   <v>       0.01041667 </v>
   <v>       0.01041667 </v>
   <v>       0.01041667 </v>
   <v>       0.01041667 </v>
   <v>       0.01041667 </v>
   <v>       0.01041667 </v>
   <v>       0.01041667 </v>
   <v>       0.01041667 </v>
   <v>       0.01041667 </v>
   <v>       0.01041667 </v>
   <v>       0.01041667 </v>
   <v>       0.01041667 </v>
   <v>       0.01041667 </v>
   <v>       0.01041667 </v>
   <v>       0.01041667 </v>
  </varray>
  <varray name="tetrahedronlist"  type="int" >
   <v type="int" >        2        1        2       18       96 </v>
   <v type="int" >        2        1       17       18       96 </v>
   <v type="int" >        2       17       18       80       96 </v>
   <v type="int" >        2        2       18       95       96 </v>
   <v type="int" >        2       18       79       95       96 </v>
   <v type="int" >        2       18       79       80       96 </v>
   <v type="int" >        2        2        3       19       95 </v>
   <v type="int" >        2        2       18       19       95 </v>
   <v type="int" >        2       18       19       79       95 </v>
   <v type="int" >        2        3       19       94       95 </v>
   <v type="int" >        2       19       78       94       95 </v>
   <v type="int" >        2       19       78       79       95 </v>
   <v type="int" >        2        3        4       20       94 </v>
   <v type="int" >        2        3       19       20       94 </v>
   <v type="int" >        2       19       20       78       94 </v>
   <v type="int" >        2        4       20       93       94 </v>
   <v type="int" >        2       20       77       93       94 </v>
   <v type="int" >        2       20       77       78       94 </v>
   <v type="int" >        2        4        5       21       93 </v>
   <v type="int" >        2        4       20       21       93 </v>
   <v type="int" >        2       20       21       77       93 </v>
   <v type="int" >        2        5       21       92       93 </v>
   <v type="int" >        2       21       76       92       93 </v>
   <v type="int" >        2       21       76       77       93 </v>
   <v type="int" >        2        5        6       22       92 </v>
   <v type="int" >        2        5       21       22       92 </v>
   <v type="int" >        2       21       22       76       92 </v>
   <v type="int" >        2        6       22       91       92 </v>
   <v type="int" >        2       22       75       91       92 </v>
   <v type="int" >        2       22       75       76       92 </v>
   <v type="int" >        2        6        7       23       91 </v>
   <v type="int" >        2        6       22       23       91 </v>
   <v type="int" >        2       22       23       75       91 </v>
   <v type="int" >        2        7       23       90       91 </v>
   <v type="int" >        2       23       74       90       91 </v>
   <v type="int" >        2       23       74       75       91 </v>
   <v type="int" >        2        7        8       24       90 </v>
   <v type="int" >        2        7       23       24       90 </v>
   <v type="int" >        2       23       24       74       90 </v>
   <v type="int" >        2        8       24       89       90 </v>
   <v type="int" >        2       24       73       89       90 </v>
   <v type="int" >        2       24       73       74       90 </v>
   <v type="int" >        2        8        9       25       89 </v>
   <v type="int" >        2        8       24       25       89 </v>
   <v type="int" >        2       24       25       73       89 </v>
   <v type="int" >        2        9       25       88       89 </v>
   <v type="int" >        2       25       72       88       89 </v>
   <v type="int" >        2       25       72       73       89 </v>
   <v type="int" >        2        9       10       26       88 </v>
   <v type="int" >        2        9       25       26       88 </v>
   <v type="int" >        2       25       26       72       88 </v>
   <v type="int" >        2       10       26       87       88 </v>
   <v type="int" >        2       26       71       87       88 </v>
   <v type="int" >        2       26       71       72       88 </v>
   <v type="int" >        2       10       11       27       87 </v>
   <v type="int" >        2       10       26       27       87 </v>
   <v type="int" >        2       26       27       71       87 </v>
   <v type="int" >        2       11       27       86       87 </v>
   <v type="int" >        2       27       70       86       87 </v>
   <v type="int" >        2       27       70       71       87 </v>
   <v type="int" >        2       11       12       28       86 </v>
   <v type="int" >        2       11       27       28       86 </v>
   <v type="int" >        2       27       28       70       86 </v>
   <v type="int" >        2       12       28       85       86 </v>
   <v type="int" >        2       28       69       85       86 </v>
   <v type="int" >        2       28       69       70       86 </v>
   <v type="int" >        2       12       13       29       85 </v>
   <v type="int" >        2       12       28       29       85 </v>
   <v type="int" >        2       28       29       69       85 </v>
   <v type="int" >        2       13       29       84       85 </v>
   <v type="int" >        2       29       68       84       85 </v>
   <v type="int" >        2       29       68       69       85 </v>
   <v type="int" >        2       13       14       30       84 </v>
   <v type="int" >        2       13       29       30       84 </v>
   <v type="int" >        2       29       30       68       84 </v>
   <v type="int" >        2       14       30       83       84 </v>
   <v type="int" >        2       30       67       83       84 </v>
   <v type="int" >        2       30       67       68       84 </v>
   <v type="int" >        2       14       15       31       83 </v>
   <v type="int" >        2       14       30       31       83 </v>
   <v type="int" >        2       30       31       67       83 </v>
   <v type="int" >        2       15       31       82       83 </v>
   <v type="int" >        2       31       66       82       83 </v>
   <v type="int" >        2       31       66       67       83 </v>
   <v type="int" >        2       15       16       32       82 </v>
   <v type="int" >        2       15       31       32       82 </v>
   <v type="int" >        2       31       32       66       82 </v>
   <v type="int" >        2       16       32       81       82 </v>
   <v type="int" >        2       32       65       81       82 </v>
   <v type="int" >        2       32       65       66       82 </v>
   <v type="int" >        2        1       16       17       81 </v>
   <v type="int" >        2       16       17       32       81 </v>
   <v type="int" >        2       17       32       65       81 </v>
   <v type="int" >        2        1       17       81       96 </v>
   <v type="int" >        2       17       80       81       96 </v>
   <v type="int" >        2       17       65       80       81 </v>
   <v type="int" >        2       17       18       34       80 </v>
   <v type="int" >        2       17       33       34       80 </v>
   <v type="int" >        2       33       34       64       80 </v>
   <v type="int" >        2       18       34       79       80 </v>
   <v type="int" >        2       34       63       79       80 </v>
   <v type="int" >        2       34       63       64       80 </v>
   <v type="int" >        2       18       19       35       79 </v>
   <v type="int" >        2       18       34       35       79 </v>
   <v type="int" >        2       34       35       63       79 </v>
   <v type="int" >        2       19       35       78       79 </v>
   <v type="int" >        2       35       62       78       79 </v>
   <v type="int" >        2       35       62       63       79 </v>
   <v type="int" >        2       19       20       36       78 </v>
   <v type="int" >        2       19       35       36       78 </v>
   <v type="int" >        2       35       36       62       78 </v>
   <v type="int" >        2       20       36       77       78 </v>
   <v type="int" >        2       36       61       77       78 </v>
   <v type="int" >        2       36       61       62       78 </v>
   <v type="int" >        2       20       21       37       77 </v>
   <v type="int" >        2       20       36       37       77 </v>
   <v type="int" >        2       36       37       61       77 </v>
   <v type="int" >        2       21       37       76       77 </v>
   <v type="int" >        2       37       60       76       77 </v>
   <v type="int" >        2       37       60       61       77 </v>
   <v type="int" >        2       21       22       38       76 </v>
   <v type="int" >        2       21       37       38       76 </v>
   <v type="int" >        2       37       38       60       76 </v>
   <v type="int" >        2       22       38       75       76 </v>
   <v type="int" >        2       38       59       75       76 </v>
   <v type="int" >        2       38       59       60       76 </v>
   <v type="int" >        2       22       23       39       75 </v>
   <v type="int" >        2       22       38       39       75 </v>
   <v type="int" >        2       38       39       59       75 </v>
   <v type="int" >        2       23       39       74       75 </v>
   <v type="int" >        2       39       58       74       75 </v>
   <v type="int" >        2       39       58       59       75 </v>
   <v type="int" >        2       23       24       40       74 </v>
   <v type="int" >        2       23       39       40       74 </v>
   <v type="int" >        2       39       40       58       74 </v>
   <v type="int" >        2       24       40       73       74 </v>
   <v type="int" >        2       40       57       73       74 </v>
   <v type="int" >        2       40       57       58       74 </v>
   <v type="int" >        2       24       25       41       73 </v>
   <v type="int" >        2       24       40       41       73 </v>
   <v type="int" >        2       40       41       57       73 </v>
   <v type="int" >        2       25       41       72       73 </v>
   <v type="int" >        2       41       56       72       73 </v>
   <v type="int" >        2       41       56       57       73 </v>
   <v type="int" >        2       25       26       42       72 </v>
   <v type="int" >        2       25       41       42       72 </v>
   <v type="int" >        2       41       42       56       72 </v>
   <v type="int" >        2       26       42       71       72 </v>
   <v type="int" >        2       42       55       71       72 </v>
   <v type="int" >        2       42       55       56       72 </v>
   <v type="int" >        2       26       27       43       71 </v>
   <v type="int" >        2       26       42       43       71 </v>
   <v type="int" >        2       42       43       55       71 </v>
   <v type="int" >        2       27       43       70       71 </v>
   <v type="int" >        2       43       54       70       71 </v>
   <v type="int" >        2       43       54       55       71 </v>
   <v type="int" >        2       27       28       44       70 </v>
   <v type="int" >        2       27       43       44       70 </v>
   <v type="int" >        2       43       44       54       70 </v>
   <v type="int" >        2       28       44       69       70 </v>
   <v type="int" >        2       44       53       69       70 </v>
   <v type="int" >        2       44       53       54       70 </v>
   <v type="int" >        2       28       29       45       69 </v>
   <v type="int" >        2       28       44       45       69 </v>
   <v type="int" >        2       44       45       53       69 </v>
   <v type="int" >        2       29       45       68       69 </v>
   <v type="int" >        2       45       52       68       69 </v>
   <v type="int" >        2       45       52       53       69 </v>
   <v type="int" >        2       29       30       46       68 </v>
   <v type="int" >        2       29       45       46       68 </v>
   <v type="int" >        2       45       46       52       68 </v>
   <v type="int" >        2       30       46       67       68 </v>
   <v type="int" >        2       46       51       67       68 </v>
   <v type="int" >        2       46       51       52       68 </v>
   <v type="int" >        2       30       31       47       67 </v>
   <v type="int" >        2       30       46       47       67 </v>
   <v type="int" >        2       46       47       51       67 </v>
   <v type="int" >        2       31       47       66       67 </v>
   <v type="int" >        2       47       50       66       67 </v>
   <v type="int" >        2       47       50       51       67 </v>
   <v type="int" >        2       31       32       48       66 </v>
   <v type="int" >        2       31       47       48       66 </v>
   <v type="int" >        2       47       48       50       66 </v>
   <v type="int" >        2       32       48       65       66 </v>
   <v type="int" >        2       48       49       65       66 </v>
   <v type="int" >        2       48       49       50       66 </v>
   <v type="int" >        2       17       32       33       65 </v>
   <v type="int" >        2       32       33       48       65 </v>
   <v type="int" >        2       33       48       49       65 </v>
   <v type="int" >        2       17       33       65       80 </v>
   <v type="int" >        2       33       64       65       80 </v>
   <v type="int" >        2       33       49       64       65 </v>
   <v type="int" >        2       33       34       50       64 </v>
   <v type="int" >        2       33       49       50       64 </v>
   <v type="int" >        2       48       49       50       64 </v>
   <v type="int" >        2       34       50       63       64 </v>
   <v type="int" >        2       47       50       63       64 </v>
   <v type="int" >        2       47       48       50       64 </v>
   <v type="int" >        2       34       35       51       63 </v>
   <v type="int" >        2       34       50       51       63 </v>
   <v type="int" >        2       47       50       51       63 </v>
   <v type="int" >        2       35       51       62       63 </v>
   <v type="int" >        2       46       51       62       63 </v>
   <v type="int" >        2       46       47       51       63 </v>
   <v type="int" >        2       35       36       52       62 </v>
   <v type="int" >        2       35       51       52       62 </v>
   <v type="int" >        2       46       51       52       62 </v>
   <v type="int" >        2       36       52       61       62 </v>
   <v type="int" >        2       45       52       61       62 </v>
   <v type="int" >        2       45       46       52       62 </v>
   <v type="int" >        2       36       37       53       61 </v>
   <v type="int" >        2       36       52       53       61 </v>
   <v type="int" >        2       45       52       53       61 </v>
   <v type="int" >        2       37       53       60       61 </v>
   <v type="int" >        2       44       53       60       61 </v>
   <v type="int" >        2       44       45       53       61 </v>
   <v type="int" >        2       37       38       54       60 </v>
   <v type="int" >        2       37       53       54       60 </v>
   <v type="int" >        2       44       53       54       60 </v>
   <v type="int" >        2       38       54       59       60 </v>
   <v type="int" >        2       43       54       59       60 </v>
   <v type="int" >        2       43       44       54       60 </v>
   <v type="int" >        2       38       39       55       59 </v>
   <v type="int" >        2       38       54       55       59 </v>
   <v type="int" >        2       43       54       55       59 </v>
   <v type="int" >        2       39       55       58       59 </v>
   <v type="int" >        2       42       55       58       59 </v>
   <v type="int" >        2       42       43       55       59 </v>
   <v type="int" >        2       39       40       56       58 </v>
   <v type="int" >        2       39       55       56       58 </v>
   <v type="int" >        2       42       55       56       58 </v>
   <v type="int" >        2       40       56       57       58 </v>
   <v type="int" >        2       41       56       57       58 </v>
   <v type="int" >        2       41       42       56       58 </v>
   <v type="int" >        2       40       41       57       57 </v>
   <v type="int" >        2       40       56       57       57 </v>
   <v type="int" >        2       41       56       57       57 </v>
   <v type="int" >        2       33       48       49       49 </v>
   <v type="int" >        2       48       49       49       64 </v>
   <v type="int" >        2       33       49       49       64 </v>
   <v type="int" >        2        2       16       81       82 </v>
   <v type="int" >        2        1        2       16       81 </v>
   <v type="int" >        2        1        2       16       96 </v>
   <v type="int" >        2        2       15       16       82 </v>
   <v type="int" >        2        2       15       16       95 </v>
   <v type="int" >        2        2       16       95       96 </v>
   <v type="int" >        2        3       15       82       83 </v>
   <v type="int" >        2        2        3       15       82 </v>
   <v type="int" >        2        2        3       15       95 </v>
   <v type="int" >        2        3       14       15       83 </v>
   <v type="int" >        2        3       14       15       94 </v>
   <v type="int" >        2        3       15       94       95 </v>
   <v type="int" >        2        4       14       83       84 </v>
   <v type="int" >        2        3        4       14       83 </v>
   <v type="int" >        2        3        4       14       94 </v>
   <v type="int" >        2        4       13       14       84 </v>
   <v type="int" >        2        4       13       14       93 </v>
   <v type="int" >        2        4       14       93       94 </v>
   <v type="int" >        2        5       13       84       85 </v>
   <v type="int" >        2        4        5       13       84 </v>
   <v type="int" >        2        4        5       13       93 </v>
   <v type="int" >        2        5       12       13       85 </v>
   <v type="int" >        2        5       12       13       92 </v>
   <v type="int" >        2        5       13       92       93 </v>
   <v type="int" >        2        6       12       85       86 </v>
   <v type="int" >        2        5        6       12       85 </v>
   <v type="int" >        2        5        6       12       92 </v>
   <v type="int" >        2        6       11       12       86 </v>
   <v type="int" >        2        6       11       12       91 </v>
   <v type="int" >        2        6       12       91       92 </v>
   <v type="int" >        2        7       11       86       87 </v>
   <v type="int" >        2        6        7       11       86 </v>
   <v type="int" >        2        6        7       11       91 </v>
   <v type="int" >        2        7       10       11       87 </v>
   <v type="int" >        2        7       10       11       90 </v>
   <v type="int" >        2        7       11       90       91 </v>
   <v type="int" >        2        8       10       87       88 </v>
   <v type="int" >        2        7        8       10       87 </v>
   <v type="int" >        2        7        8       10       90 </v>
   <v type="int" >        2        8        9       10       88 </v>
   <v type="int" >        2        8        9       10       89 </v>
   <v type="int" >        2        8       10       89       90 </v>
   <v type="int" >        2        9        9       88       89 </v>
   <v type="int" >        2        8        9        9       88 </v>
   <v type="int" >        2        8        9        9       89 </v>
   <v type="int" >        2        1        1       81       96 </v>
   <v type="int" >        2        1        1       16       96 </v>
   <v type="int" >        2        1        1       16       81 </v>
   <v type="int" >        2        1       79       95       96 </v>
   <v type="int" >        2        1       79       80       96 </v>
   <v type="int" >        2        1       17       79       80 </v>
   <v type="int" >        2        1        2       79       95 </v>
   <v type="int" >        2        1        2       18       79 </v>
   <v type="int" >        2        1       17       18       79 </v>
   <v type="int" >        2        2       78       94       95 </v>
   <v type="int" >        2        2       78       79       95 </v>
   <v type="int" >        2        2       18       78       79 </v>
   <v type="int" >        2        2        3       78       94 </v>
   <v type="int" >        2        2        3       19       78 </v>
   <v type="int" >        2        2       18       19       78 </v>
   <v type="int" >        2        3       77       93       94 </v>
   <v type="int" >        2        3       77       78       94 </v>
   <v type="int" >        2        3       19       77       78 </v>
   <v type="int" >        2        3        4       77       93 </v>
   <v type="int" >        2        3        4       20       77 </v>
   <v type="int" >        2        3       19       20       77 </v>
   <v type="int" >        2        4       76       92       93 </v>
   <v type="int" >        2        4       76       77       93 </v>
   <v type="int" >        2        4       20       76       77 </v>
   <v type="int" >        2        4        5       76       92 </v>
   <v type="int" >        2        4        5       21       76 </v>
   <v type="int" >        2        4       20       21       76 </v>
   <v type="int" >        2        5       75       91       92 </v>
   <v type="int" >        2        5       75       76       92 </v>
   <v type="int" >        2        5       21       75       76 </v>
   <v type="int" >        2        5        6       75       91 </v>
   <v type="int" >        2        5        6       22       75 </v>
   <v type="int" >        2        5       21       22       75 </v>
   <v type="int" >        2        6       74       90       91 </v>
   <v type="int" >        2        6       74       75       91 </v>
   <v type="int" >        2        6       22       74       75 </v>
   <v type="int" >        2        6        7       74       90 </v>
   <v type="int" >        2        6        7       23       74 </v>
   <v type="int" >        2        6       22       23       74 </v>
   <v type="int" >        2        7       73       89       90 </v>
   <v type="int" >        2        7       73       74       90 </v>
   <v type="int" >        2        7       23       73       74 </v>
   <v type="int" >        2        7        8       73       89 </v>
   <v type="int" >        2        7        8       24       73 </v>
   <v type="int" >        2        7       23       24       73 </v>
   <v type="int" >        2        8       72       88       89 </v>
   <v type="int" >        2        8       72       73       89 </v>
   <v type="int" >        2        8       24       72       73 </v>
   <v type="int" >        2        8        9       72       88 </v>
   <v type="int" >        2        8        9       25       72 </v>
   <v type="int" >        2        8       24       25       72 </v>
   <v type="int" >        2        9       71       87       88 </v>
   <v type="int" >        2        9       71       72       88 </v>
   <v type="int" >        2        9       25       71       72 </v>
   <v type="int" >        2        9       10       71       87 </v>
   <v type="int" >        2        9       10       26       71 </v>
   <v type="int" >        2        9       25       26       71 </v>
   <v type="int" >        2       10       70       86       87 </v>
   <v type="int" >        2       10       70       71       87 </v>
   <v type="int" >        2       10       26       70       71 </v>
   <v type="int" >        2       10       11       70       86 </v>
   <v type="int" >        2       10       11       27       70 </v>
   <v type="int" >        2       10       26       27       70 </v>
   <v type="int" >        2       11       69       85       86 </v>
   <v type="int" >        2       11       69       70       86 </v>
   <v type="int" >        2       11       27       69       70 </v>
   <v type="int" >        2       11       12       69       85 </v>
   <v type="int" >        2       11       12       28       69 </v>
   <v type="int" >        2       11       27       28       69 </v>
   <v type="int" >        2       12       68       84       85 </v>
   <v type="int" >        2       12       68       69       85 </v>
   <v type="int" >        2       12       28       68       69 </v>
   <v type="int" >        2       12       13       68       84 </v>
   <v type="int" >        2       12       13       29       68 </v>
   <v type="int" >        2       12       28       29       68 </v>
   <v type="int" >        2       13       67       83       84 </v>
   <v type="int" >        2       13       67       68       84 </v>
   <v type="int" >        2       13       29       67       68 </v>
   <v type="int" >        2       13       14       67       83 </v>
   <v type="int" >        2       13       14       30       67 </v>
   <v type="int" >        2       13       29       30       67 </v>
   <v type="int" >        2       14       66       82       83 </v>
   <v type="int" >        2       14       66       67       83 </v>
   <v type="int" >        2       14       30       66       67 </v>
   <v type="int" >        2       14       15       66       82 </v>
   <v type="int" >        2       14       15       31       66 </v>
   <v type="int" >        2       14       30       31       66 </v>
   <v type="int" >        2       15       65       81       82 </v>
   <v type="int" >        2       15       65       66       82 </v>
   <v type="int" >        2       15       31       65       66 </v>
   <v type="int" >        2       15       16       65       81 </v>
   <v type="int" >        2       15       16       32       65 </v>
   <v type="int" >        2       15       31       32       65 </v>
   <v type="int" >        2       16       80       81       96 </v>
   <v type="int" >        2       16       65       80       81 </v>
   <v type="int" >        2       16       32       65       80 </v>
   <v type="int" >        2        1       16       80       96 </v>
   <v type="int" >        2        1       16       17       80 </v>
   <v type="int" >        2       16       17       32       80 </v>
   <v type="int" >        2       17       63       79       80 </v>
   <v type="int" >        2       17       63       64       80 </v>
   <v type="int" >        2       17       33       63       64 </v>
   <v type="int" >        2       17       18       63       79 </v>
   <v type="int" >        2       17       18       34       63 </v>
   <v type="int" >        2       17       33       34       63 </v>
   <v type="int" >        2       18       62       78       79 </v>
   <v type="int" >        2       18       62       63       79 </v>
   <v type="int" >        2       18       34       62       63 </v>
   <v type="int" >        2       18       19       62       78 </v>
   <v type="int" >        2       18       19       35       62 </v>
   <v type="int" >        2       18       34       35       62 </v>
   <v type="int" >        2       19       61       77       78 </v>
   <v type="int" >        2       19       61       62       78 </v>
   <v type="int" >        2       19       35       61       62 </v>
   <v type="int" >        2       19       20       61       77 </v>
   <v type="int" >        2       19       20       36       61 </v>
   <v type="int" >        2       19       35       36       61 </v>
   <v type="int" >        2       20       60       76       77 </v>
   <v type="int" >        2       20       60       61       77 </v>
   <v type="int" >        2       20       36       60       61 </v>
   <v type="int" >        2       20       21       60       76 </v>
   <v type="int" >        2       20       21       37       60 </v>
   <v type="int" >        2       20       36       37       60 </v>
   <v type="int" >        2       21       59       75       76 </v>
   <v type="int" >        2       21       59       60       76 </v>
   <v type="int" >        2       21       37       59       60 </v>
   <v type="int" >        2       21       22       59       75 </v>
   <v type="int" >        2       21       22       38       59 </v>
   <v type="int" >        2       21       37       38       59 </v>
   <v type="int" >        2       22       58       74       75 </v>
   <v type="int" >        2       22       58       59       75 </v>
   <v type="int" >        2       22       38       58       59 </v>
   <v type="int" >        2       22       23       58       74 </v>
   <v type="int" >        2       22       23       39       58 </v>
   <v type="int" >        2       22       38       39       58 </v>
   <v type="int" >        2       23       57       73       74 </v>
   <v type="int" >        2       23       57       58       74 </v>
   <v type="int" >        2       23       39       57       58 </v>
   <v type="int" >        2       23       24       57       73 </v>
   <v type="int" >        2       23       24       40       57 </v>
   <v type="int" >        2       23       39       40       57 </v>
   <v type="int" >        2       24       56       72       73 </v>
   <v type="int" >        2       24       56       57       73 </v>
   <v type="int" >        2       24       40       56       57 </v>
   <v type="int" >        2       24       25       56       72 </v>
   <v type="int" >        2       24       25       41       56 </v>
   <v type="int" >        2       24       40       41       56 </v>
   <v type="int" >        2       25       55       71       72 </v>
   <v type="int" >        2       25       55       56       72 </v>
   <v type="int" >        2       25       41       55       56 </v>
   <v type="int" >        2       25       26       55       71 </v>
   <v type="int" >        2       25       26       42       55 </v>
   <v type="int" >        2       25       41       42       55 </v>
   <v type="int" >        2       26       54       70       71 </v>
   <v type="int" >        2       26       54       55       71 </v>
   <v type="int" >        2       26       42       54       55 </v>
   <v type="int" >        2       26       27       54       70 </v>
   <v type="int" >        2       26       27       43       54 </v>
   <v type="int" >        2       26       42       43       54 </v>
   <v type="int" >        2       27       53       69       70 </v>
   <v type="int" >        2       27       53       54       70 </v>
   <v type="int" >        2       27       43       53       54 </v>
   <v type="int" >        2       27       28       53       69 </v>
   <v type="int" >        2       27       28       44       53 </v>
   <v type="int" >        2       27       43       44       53 </v>
   <v type="int" >        2       28       52       68       69 </v>
   <v type="int" >        2       28       52       53       69 </v>
   <v type="int" >        2       28       44       52       53 </v>
   <v type="int" >        2       28       29       52       68 </v>
   <v type="int" >        2       28       29       45       52 </v>
   <v type="int" >        2       28       44       45       52 </v>
   <v type="int" >        2       29       51       67       68 </v>
   <v type="int" >        2       29       51       52       68 </v>
   <v type="int" >        2       29       45       51       52 </v>
   <v type="int" >        2       29       30       51       67 </v>
   <v type="int" >        2       29       30       46       51 </v>
   <v type="int" >        2       29       45       46       51 </v>
   <v type="int" >        2       30       50       66       67 </v>
   <v type="int" >        2       30       50       51       67 </v>
   <v type="int" >        2       30       46       50       51 </v>
   <v type="int" >        2       30       31       50       66 </v>
   <v type="int" >        2       30       31       47       50 </v>
   <v type="int" >        2       30       46       47       50 </v>
   <v type="int" >        2       31       49       65       66 </v>
   <v type="int" >        2       31       49       50       66 </v>
   <v type="int" >        2       31       47       49       50 </v>
   <v type="int" >        2       31       32       49       65 </v>
   <v type="int" >        2       31       32       48       49 </v>
   <v type="int" >        2       31       47       48       49 </v>
   <v type="int" >        2       32       64       65       80 </v>
   <v type="int" >        2       32       49       64       65 </v>
   <v type="int" >        2       32       48       49       64 </v>
   <v type="int" >        2       17       32       64       80 </v>
   <v type="int" >        2       17       32       33       64 </v>
   <v type="int" >        2       32       33       48       64 </v>
   <v type="int" >        2       33       47       63       64 </v>
   <v type="int" >        2       33       47       48       64 </v>
   <v type="int" >        2       33       47       48       49 </v>
   <v type="int" >        2       33       34       47       63 </v>
   <v type="int" >        2       33       34       47       50 </v>
   <v type="int" >        2       33       47       49       50 </v>
   <v type="int" >        2       34       46       62       63 </v>
   <v type="int" >        2       34       46       47       63 </v>
   <v type="int" >        2       34       46       47       50 </v>
   <v type="int" >        2       34       35       46       62 </v>
   <v type="int" >        2       34       35       46       51 </v>
   <v type="int" >        2       34       46       50       51 </v>
   <v type="int" >        2       35       45       61       62 </v>
   <v type="int" >        2       35       45       46       62 </v>
   <v type="int" >        2       35       45       46       51 </v>
   <v type="int" >        2       35       36       45       61 </v>
   <v type="int" >        2       35       36       45       52 </v>
   <v type="int" >        2       35       45       51       52 </v>
   <v type="int" >        2       36       44       60       61 </v>
   <v type="int" >        2       36       44       45       61 </v>
   <v type="int" >        2       36       44       45       52 </v>
   <v type="int" >        2       36       37       44       60 </v>
   <v type="int" >        2       36       37       44       53 </v>
   <v type="int" >        2       36       44       52       53 </v>
   <v type="int" >        2       37       43       59       60 </v>
   <v type="int" >        2       37       43       44       60 </v>
   <v type="int" >        2       37       43       44       53 </v>
   <v type="int" >        2       37       38       43       59 </v>
   <v type="int" >        2       37       38       43       54 </v>
   <v type="int" >        2       37       43       53       54 </v>
   <v type="int" >        2       38       42       58       59 </v>
   <v type="int" >        2       38       42       43       59 </v>
   <v type="int" >        2       38       42       43       54 </v>
   <v type="int" >        2       38       39       42       58 </v>
   <v type="int" >        2       38       39       42       55 </v>
   <v type="int" >        2       38       42       54       55 </v>
   <v type="int" >        2       39       41       57       58 </v>
   <v type="int" >        2       39       41       42       58 </v>
   <v type="int" >        2       39       41       42       55 </v>
   <v type="int" >        2       39       40       41       57 </v>
   <v type="int" >        2       39       40       41       56 </v>
   <v type="int" >        2       39       41       55       56 </v>
   <v type="int" >        2       40       40       56       57 </v>
   <v type="int" >        2       40       40       41       57 </v>
   <v type="int" >        2       40       40       41       56 </v>
   <v type="int" >        2       48       48       49       64 </v>
   <v type="int" >        2       33       48       48       49 </v>
   <v type="int" >        2       33       48       48       64 </v>
   <v type="int" >        2       15       16       81       95 </v>
   <v type="int" >        2       16       81       95       96 </v>
   <v type="int" >        2        1       81       95       96 </v>
   <v type="int" >        2       15       81       82       95 </v>
   <v type="int" >        2        2       81       82       95 </v>
   <v type="int" >        2        1        2       81       95 </v>
   <v type="int" >        2       14       15       82       94 </v>
   <v type="int" >        2       15       82       94       95 </v>
   <v type="int" >        2        2       82       94       95 </v>
   <v type="int" >        2       14       82       83       94 </v>
   <v type="int" >        2        3       82       83       94 </v>
   <v type="int" >        2        2        3       82       94 </v>
   <v type="int" >        2       13       14       83       93 </v>
   <v type="int" >        2       14       83       93       94 </v>
   <v type="int" >        2        3       83       93       94 </v>
   <v type="int" >        2       13       83       84       93 </v>
   <v type="int" >        2        4       83       84       93 </v>
   <v type="int" >        2        3        4       83       93 </v>
   <v type="int" >        2       12       13       84       92 </v>
   <v type="int" >        2       13       84       92       93 </v>
   <v type="int" >        2        4       84       92       93 </v>
   <v type="int" >        2       12       84       85       92 </v>
   <v type="int" >        2        5       84       85       92 </v>
   <v type="int" >        2        4        5       84       92 </v>
   <v type="int" >        2       11       12       85       91 </v>
   <v type="int" >        2       12       85       91       92 </v>
   <v type="int" >        2        5       85       91       92 </v>
   <v type="int" >        2       11       85       86       91 </v>
   <v type="int" >        2        6       85       86       91 </v>
   <v type="int" >        2        5        6       85       91 </v>
   <v type="int" >        2       10       11       86       90 </v>
   <v type="int" >        2       11       86       90       91 </v>
   <v type="int" >        2        6       86       90       91 </v>
   <v type="int" >        2       10       86       87       90 </v>
   <v type="int" >        2        7       86       87       90 </v>
   <v type="int" >        2        6        7       86       90 </v>
   <v type="int" >        2        9       10       87       89 </v>
   <v type="int" >        2       10       87       89       90 </v>
   <v type="int" >        2        7       87       89       90 </v>
   <v type="int" >        2        9       87       88       89 </v>
   <v type="int" >        2        8       87       88       89 </v>
   <v type="int" >        2        7        8       87       89 </v>
   <v type="int" >        2        8        9       88       88 </v>
   <v type="int" >        2        9       88       88       89 </v>
   <v type="int" >        2        8       88       88       89 </v>
   <v type="int" >        2        1       16       96       96 </v>
   <v type="int" >        2        1       81       96       96 </v>
   <v type="int" >        2       16       81       96       96 </v>
  </varray>
  <i name="volumeweight">      0.00086806 </i>
 </kpoints>
 <parameters>
  <separator name="general" >
   <i type="string" name="SYSTEM">unknown system</i>
   <i type="logical" name="LCOMPAT"> F  </i>
  </separator>
  <separator name="electronic" >
   <i type="string" name="PREC">normal</i>
   <i name="ENMAX">    500.00000000</i>
   <i name="ENAUG">    627.11200000</i>
   <i name="EDIFF">      0.00000100</i>
   <i type="int" name="IALGO">    38</i>
   <i type="int" name="IWAVPR">    10</i>
   <i type="int" name="NBANDS">   600</i>
   <i name="NELECT">    828.00000000</i>
   <i type="int" name="TURBO">     0</i>
   <i type="int" name="IRESTART">     0</i>
   <i type="int" name="NREBOOT">     0</i>
   <i type="int" name="NMIN">     0</i>
   <i name="EREF">      0.00000000</i>
   <separator name="electronic smearing" >
    <i type="int" name="ISMEAR">    -5</i>
    <i name="SIGMA">      0.20000000</i>
    <i name="KSPACING">      0.50000000</i>
    <i type="logical" name="KGAMMA"> T  </i>
   </separator>
   <separator name="electronic projectors" >
    <i type="logical" name="LREAL"> T  </i>
    <v name="ROPT">     -0.00050000     -0.00050000     -0.00050000     -0.00050000</v>
    <i type="int" name="LMAXPAW">  -100</i>
    <i type="int" name="LMAXMIX">     2</i>
    <i type="logical" name="NLSPLINE"> F  </i>
   </separator>
   <separator name="electronic startup" >
    <i type="int" name="ISTART">     0</i>
    <i type="int" name="ICHARG">    11</i>
    <i type="int" name="INIWAV">     1</i>
   </separator>
   <separator name="electronic spin" >
    <i type="int" name="ISPIN">     1</i>
    <i type="logical" name="LNONCOLLINEAR"> F  </i>
    <v name="MAGMOM">      1.00000000      1.00000000      1.00000000      1.00000000      1.00000000      1.00000000      1.00000000      1.00000000      1.00000000      1.00000000      1.00000000      1.00000000      1.00000000      1.00000000      1.00000000      1.00000000      1.00000000      1.00000000      1.00000000      1.00000000
      1.00000000      1.00000000      1.00000000      1.00000000      1.00000000      1.00000000      1.00000000      1.00000000      1.00000000      1.00000000      1.00000000      1.00000000      1.00000000      1.00000000      1.00000000      1.00000000      1.00000000      1.00000000      1.00000000      1.00000000
      1.00000000      1.00000000      1.00000000      1.00000000      1.00000000      1.00000000      1.00000000      1.00000000      1.00000000      1.00000000      1.00000000      1.00000000      1.00000000      1.00000000      1.00000000      1.00000000      1.00000000      1.00000000      1.00000000      1.00000000
      1.00000000      1.00000000      1.00000000      1.00000000      1.00000000      1.00000000      1.00000000      1.00000000      1.00000000      1.00000000      1.00000000      1.00000000      1.00000000      1.00000000      1.00000000      1.00000000      1.00000000      1.00000000      1.00000000      1.00000000
      1.00000000      1.00000000      1.00000000      1.00000000      1.00000000      1.00000000      1.00000000      1.00000000      1.00000000      1.00000000      1.00000000      1.00000000      1.00000000      1.00000000      1.00000000      1.00000000      1.00000000      1.00000000      1.00000000      1.00000000
      1.00000000      1.00000000      1.00000000      1.00000000      1.00000000      1.00000000      1.00000000      1.00000000      1.00000000      1.00000000      1.00000000      1.00000000      1.00000000      1.00000000      1.00000000      1.00000000      1.00000000      1.00000000      1.00000000      1.00000000
      1.00000000      1.00000000      1.00000000      1.00000000      1.00000000      1.00000000</v>
    <i name="NUPDOWN">     -1.00000000</i>
    <i type="logical" name="LSORBIT"> F  </i>
    <v name="SAXIS">      0.00000000      0.00000000      1.00000000</v>
    <i type="logical" name="LSPIRAL"> F  </i>
    <v name="QSPIRAL">      0.00000000      0.00000000      0.00000000</v>
    <i type="logical" name="LZEROZ"> F  </i>
   </separator>
   <separator name="electronic exchange-correlation" >
    <i type="logical" name="LASPH"> F  </i>
    <i type="logical" name="LMETAGGA"> F  </i>
   </separator>
   <separator name="electronic convergence" >
    <i type="int" name="NELM">   300</i>
    <i type="int" name="NELMDL">     0</i>
    <i type="int" name="NELMIN">     2</i>
    <i name="ENINI">    500.00000000</i>
    <separator name="electronic convergence detail" >
     <i type="logical" name="LDIAG"> T  </i>
     <i type="logical" name="LSUBROT"> F  </i>
     <i name="WEIMIN">      0.00000000</i>
     <i name="EBREAK">      0.00000000</i>
     <i name="DEPER">      0.30000000</i>
     <i type="int" name="NRMM">     4</i>
     <i name="TIME">      0.40000000</i>
    </separator>
   </separator>
   <separator name="electronic mixer" >
    <i name="AMIX">      0.40000000</i>
    <i name="BMIX">      1.00000000</i>
    <i name="AMIN">      0.10000000</i>
    <i name="AMIX_MAG">      1.60000000</i>
    <i name="BMIX_MAG">      1.00000000</i>
    <separator name="electronic mixer details" >
     <i type="int" name="IMIX">     4</i>
     <i type="logical" name="MIXFIRST"> F  </i>
     <i type="int" name="MAXMIX">   -45</i>
     <i name="WC">    100.00000000</i>
     <i type="int" name="INIMIX">     1</i>
     <i type="int" name="MIXPRE">     1</i>
     <i type="int" name="MREMOVE">     5</i>
    </separator>
   </separator>
   <separator name="electronic dipolcorrection" >
    <i type="logical" name="LDIPOL"> F  </i>
    <i type="logical" name="LMONO"> F  </i>
    <i type="int" name="IDIPOL">     0</i>
    <i name="EPSILON">      1.00000000</i>
    <v name="DIPOL">   -100.00000000   -100.00000000   -100.00000000</v>
    <i name="EFIELD">      0.00000000</i>
   </separator>
  </separator>
  <separator name="grids" >
   <i type="int" name="NGX">    18</i>
   <i type="int" name="NGY">    90</i>
   <i type="int" name="NGZ">   250</i>
   <i type="int" name="NGXF">    36</i>
   <i type="int" name="NGYF">   180</i>
   <i type="int" name="NGZF">   500</i>
   <i type="logical" name="ADDGRID"> F  </i>
  </separator>
  <separator name="ionic" >
   <i type="int" name="NSW">     0</i>
   <i type="int" name="IBRION">    -1</i>
   <i type="int" name="MDALGO">     0</i>
   <i type="int" name="ISIF">     2</i>
   <i name="PSTRESS">      0.00000000</i>
   <i name="EDIFFG">      0.00001000</i>
   <i type="int" name="NFREE">     0</i>
   <i name="POTIM">      0.50000000</i>
   <i name="SMASS">     -3.00000000</i>
   <i name="SCALEE">      1.00000000</i>
  </separator>
  <separator name="ionic md" >
   <i name="TEBEG">      0.00010000</i>
   <i name="TEEND">      0.00010000</i>
   <i type="int" name="NBLOCK">     1</i>
   <i type="int" name="KBLOCK">     1</i>
   <i type="int" name="NPACO">   256</i>
   <i name="APACO">     16.00000000</i>
  </separator>
  <separator name="symmetry" >
   <i type="int" name="ISYM">     2</i>
   <i name="SYMPREC">      0.00001000</i>
  </separator>
  <separator name="dos" >
   <i type="int" name="LORBIT">    10</i>
   <v name="RWIGS">     -1.00000000     -1.00000000     -1.00000000     -1.00000000</v>
   <i type="int" name="NEDOS">  1500</i>
   <i name="EMIN">    -15.00000000</i>
   <i name="EMAX">     15.00000000</i>
   <i name="EFERMI">      0.00000000</i>
  </separator>
  <separator name="writing" >
   <i type="int" name="NWRITE">     2</i>
   <i type="logical" name="LWAVE"> T  </i>
   <i type="logical" name="LDOWNSAMPLE"> F  </i>
   <i type="logical" name="LCHARG"> T  </i>
   <i type="logical" name="LPARD"> F  </i>
   <i type="logical" name="LVTOT"> F  </i>
   <i type="logical" name="LVHAR"> F  </i>
   <i type="logical" name="LELF"> F  </i>
   <i type="logical" name="LOPTICS"> F  </i>
   <v name="STM">      0.00000000      0.00000000      0.00000000      0.00000000      0.00000000      0.00000000      0.00000000</v>
  </separator>
  <separator name="performance" >
   <i type="int" name="NPAR">     1</i>
   <i type="int" name="NSIM">     4</i>
   <i type="int" name="NBLK">    -1</i>
   <i type="logical" name="LPLANE"> T  </i>
   <i type="logical" name="LSCALAPACK"> T  </i>
   <i type="logical" name="LSCAAWARE"> F  </i>
   <i type="logical" name="LSCALU"> F  </i>
   <i type="logical" name="LASYNC"> F  </i>
   <i type="logical" name="LORBITALREAL"> F  </i>
  </separator>
  <separator name="miscellaneous" >
   <i type="int" name="IDIOT">     3</i>
   <i type="int" name="ISPECIAL">     0</i>
   <i type="logical" name="LMUSIC"> F  </i>
   <v name="POMASS">     51.99600000     55.84700000     95.94000000     14.00100000</v>
   <v name="DARWINR">      0.00000000      0.00000000      0.00000000      0.00000000</v>
   <v name="DARWINV">      1.00000000      1.00000000      1.00000000      1.00000000</v>
   <i type="logical" name="LCORR"> T  </i>
  </separator>
  <i type="logical" name="GGA_COMPAT"> T  </i>
  <i type="logical" name="LBERRY"> F  </i>
  <i type="int" name="ICORELEVEL">     0</i>
  <i type="logical" name="LDAU"> F  </i>
  <i type="int" name="I_CONSTRAINED_M">     0</i>
  <separator name="electronic exchange-correlation" >
   <i type="string" name="GGA">--</i>
   <i type="int" name="VOSKOWN">     0</i>
   <i type="logical" name="LHFCALC"> F  </i>
   <i type="string" name="PRECFOCK"></i>
   <i type="logical" name="LSYMGRAD"> F  </i>
   <i type="logical" name="LHFONE"> F  </i>
   <i type="logical" name="LRHFCALC"> F  </i>
   <i type="logical" name="LTHOMAS"> F  </i>
   <i type="logical" name="LMODELHF"> F  </i>
   <i name="ENCUT4O">     -1.00000000</i>
   <i type="int" name="EXXOEP">     0</i>
   <i type="int" name="FOURORBIT">     0</i>
   <i name="AEXX">      0.00000000</i>
   <i name="HFALPHA">      0.00000000</i>
   <i name="MCALPHA">      0.00000000</i>
   <i name="ALDAX">      1.00000000</i>
   <i name="AGGAX">      1.00000000</i>
   <i name="ALDAC">      1.00000000</i>
   <i name="AGGAC">      1.00000000</i>
   <i type="int" name="NKREDX">     1</i>
   <i type="int" name="NKREDY">     1</i>
   <i type="int" name="NKREDZ">     1</i>
   <i type="logical" name="SHIFTRED"> F  </i>
   <i type="logical" name="ODDONLY"> F  </i>
   <i type="logical" name="EVENONLY"> F  </i>
   <i type="int" name="LMAXFOCK">     0</i>
   <i type="int" name="NMAXFOCKAE">     0</i>
   <i type="logical" name="LFOCKAEDFT"> F  </i>
   <i name="HFSCREEN">      0.00000000</i>
   <i name="HFSCREENC">      0.00000000</i>
   <i type="int" name="NBANDSGWLOW">     0</i>
  </separator>
  <separator name="vdW DFT" >
   <i type="logical" name="LUSE_VDW"> F  </i>
   <i name="Zab_VDW">     -0.84910000</i>
   <i name="PARAM1">      0.12340000</i>
   <i name="PARAM2">      1.00000000</i>
   <i name="PARAM3">      0.00000000</i>
  </separator>
  <separator name="model GW" >
   <i type="int" name="MODEL_GW">     0</i>
   <i name="MODEL_EPS0">     10.54285714</i>
   <i name="MODEL_ALPHA">      1.00000000</i>
  </separator>
  <separator name="linear response parameters" >
   <i type="logical" name="LEPSILON"> F  </i>
   <i type="logical" name="LRPA"> F  </i>
   <i type="logical" name="LNABLA"> F  </i>
   <i type="logical" name="LVEL"> F  </i>
   <i type="int" name="KINTER">     0</i>
   <i name="CSHIFT">      0.10000000</i>
   <i name="OMEGAMAX">     -1.00000000</i>
   <i name="DEG_THRESHOLD">      0.00200000</i>
   <i name="RTIME">     -0.10000000</i>
   <i name="WPLASMAI">      0.00000000</i>
   <v name="DFIELD">      0.00000000      0.00000000      0.00000000</v>
   <v name="WPLASMA">      0.00000000      0.00000000      0.00000000      0.00000000      0.00000000      0.00000000      0.00000000      0.00000000      0.00000000</v>
  </separator>
  <separator name="orbital magnetization" >
   <i type="logical" name="NUCIND"> F  </i>
   <v name="MAGPOS">      0.00000000      0.00000000      0.00000000</v>
   <i type="logical" name="LNICSALL"> T  </i>
   <i type="logical" name="ORBITALMAG"> F  </i>
   <i type="logical" name="LMAGBLOCH"> F  </i>
   <i type="logical" name="LCHIMAG"> F  </i>
   <i type="logical" name="LGAUGE"> T  </i>
   <i type="int" name="MAGATOM">     0</i>
   <v name="MAGDIPOL">      0.00000000      0.00000000      0.00000000</v>
   <v name="AVECCONST">      0.00000000      0.00000000      0.00000000</v>
  </separator>
  <separator name="response functions" >
   <i type="logical" name="LADDER"> F  </i>
   <i type="logical" name="LRPAFORCE"> F  </i>
   <i type="logical" name="LFXC"> F  </i>
   <i type="logical" name="LHARTREE"> T  </i>
   <i type="int" name="IBSE">     0</i>
   <v type="int" name="KPOINT">    -1     0     0     0</v>
   <i type="logical" name="LTCTE"> F  </i>
   <i type="logical" name="LTETE"> F  </i>
   <i type="logical" name="LTRIPLET"> F  </i>
   <i type="logical" name="LFXCEPS"> F  </i>
   <i type="logical" name="LFXHEG"> F  </i>
   <i type="int" name="NATURALO">     2</i>
   <i type="logical" name="L2ORDER"> F  </i>
   <i type="logical" name="LMP2LT"> F  </i>
   <i type="logical" name="LUSEW"> F  </i>
   <i name="ENCUTGW">     -2.00000000</i>
   <i name="ENCUTGWSOFT">     -2.00000000</i>
   <i name="ENCUTLF">     -1.00000000</i>
   <i type="int" name="LMAXMP2">    -1</i>
   <i name="SCISSOR">      0.00000000</i>
   <i type="int" name="NOMEGA">     0</i>
   <i type="int" name="NOMEGAR">     0</i>
   <i type="int" name="NBANDSGW">    -1</i>
   <i type="int" name="NBANDSO">    -1</i>
   <i type="int" name="NBANDSV">    -1</i>
   <i type="int" name="NELM">   300</i>
   <i type="int" name="NELMHF">     1</i>
   <i type="int" name="DIM">     3</i>
   <i type="int" name="ANTIRES">     0</i>
   <i name="OMEGAMAX">    -30.00000000</i>
   <i name="OMEGAMIN">    -30.00000000</i>
   <i name="OMEGATL">   -200.00000000</i>
   <i type="int" name="OMEGAGRID">   140</i>
   <i name="CSHIFT">     -0.10000000</i>
   <i type="logical" name="SELFENERGY"> F  </i>
   <i type="logical" name="LSPECTRAL"> F  </i>
   <i type="logical" name="LSPECTRALGW"> F  </i>
   <i type="logical" name="LSINGLES"> F  </i>
   <i type="logical" name="LFERMIGW"> F  </i>
   <i type="logical" name="ODDONLYGW"> F  </i>
   <i type="logical" name="EVENONLYGW"> F  </i>
   <i type="int" name="NKREDLFX">     1</i>
   <i type="int" name="NKREDLFY">     1</i>
   <i type="int" name="NKREDLFZ">     1</i>
   <i type="int" name="MAXMEM">  2800</i>
   <i type="int" name="TELESCOPE">     0</i>
   <i type="int" name="TAUPAR">     1</i>
   <i type="int" name="OMEGAPAR">    -1</i>
   <i name="LAMBDA">      1.00000000</i>
  </separator>
  <separator name="External order field" >
   <i name="OFIELD_KAPPA">      0.00000000</i>
   <v name="OFIELD_K">      0.00000000      0.00000000      0.00000000</v>
   <i name="OFIELD_Q6_NEAR">      0.00000000</i>
   <i name="OFIELD_Q6_FAR">      0.00000000</i>
   <i name="OFIELD_A">      0.00000000</i>
  </separator>
 </parameters>
 <atominfo>
  <atoms>     126 </atoms>
  <types>       4 </types>
  <array name="atoms" >
   <dimension dim="1">ion</dimension>
   <field type="string">element</field>
   <field type="int">atomtype</field>
   <set>
    <rc><c>Cr</c><c>   1</c></rc>
    <rc><c>Cr</c><c>   1</c></rc>
    <rc><c>Cr</c><c>   1</c></rc>
    <rc><c>Cr</c><c>   1</c></rc>
    <rc><c>Cr</c><c>   1</c></rc>
    <rc><c>Cr</c><c>   1</c></rc>
    <rc><c>Cr</c><c>   1</c></rc>
    <rc><c>Cr</c><c>   1</c></rc>
    <rc><c>Cr</c><c>   1</c></rc>
    <rc><c>Cr</c><c>   1</c></rc>
    <rc><c>Cr</c><c>   1</c></rc>
    <rc><c>Cr</c><c>   1</c></rc>
    <rc><c>Cr</c><c>   1</c></rc>
    <rc><c>Cr</c><c>   1</c></rc>
    <rc><c>Cr</c><c>   1</c></rc>
    <rc><c>Cr</c><c>   1</c></rc>
    <rc><c>Cr</c><c>   1</c></rc>
    <rc><c>Cr</c><c>   1</c></rc>
    <rc><c>Cr</c><c>   1</c></rc>
    <rc><c>Cr</c><c>   1</c></rc>
    <rc><c>Cr</c><c>   1</c></rc>
    <rc><c>Cr</c><c>   1</c></rc>
    <rc><c>Cr</c><c>   1</c></rc>
    <rc><c>Cr</c><c>   1</c></rc>
    <rc><c>Cr</c><c>   1</c></rc>
    <rc><c>Cr</c><c>   1</c></rc>
    <rc><c>Cr</c><c>   1</c></rc>
    <rc><c>Cr</c><c>   1</c></rc>
    <rc><c>Cr</c><c>   1</c></rc>
    <rc><c>Cr</c><c>   1</c></rc>
    <rc><c>Fe</c><c>   2</c></rc>
    <rc><c>Fe</c><c>   2</c></rc>
    <rc><c>Fe</c><c>   2</c></rc>
    <rc><c>Fe</c><c>   2</c></rc>
    <rc><c>Fe</c><c>   2</c></rc>
    <rc><c>Fe</c><c>   2</c></rc>
    <rc><c>Fe</c><c>   2</c></rc>
    <rc><c>Fe</c><c>   2</c></rc>
    <rc><c>Fe</c><c>   2</c></rc>
    <rc><c>Fe</c><c>   2</c></rc>
    <rc><c>Fe</c><c>   2</c></rc>
    <rc><c>Fe</c><c>   2</c></rc>
    <rc><c>Fe</c><c>   2</c></rc>
[...]
       <r>    1.8529    0.0000 </r>
       <r>    1.8606    0.0000 </r>
       <r>    1.8670    0.0000 </r>
       <r>    1.8726    0.0000 </r>
       <r>    1.8803    0.0000 </r>
       <r>    1.8922    0.0000 </r>
       <r>    1.9010    0.0000 </r>
       <r>    1.9076    0.0000 </r>
       <r>    1.9140    0.0000 </r>
       <r>    1.9205    0.0000 </r>
       <r>    1.9280    0.0000 </r>
       <r>    1.9360    0.0000 </r>
       <r>    1.9385    0.0000 </r>
       <r>    1.9489    0.0000 </r>
       <r>    1.9568    0.0000 </r>
       <r>    1.9601    0.0000 </r>
       <r>    1.9681    0.0000 </r>
       <r>    1.9743    0.0000 </r>
       <r>    1.9802    0.0000 </r>
       <r>    1.9812    0.0000 </r>
       <r>    1.9918    0.0000 </r>
       <r>    2.0051    0.0000 </r>
       <r>    2.0140    0.0000 </r>
       <r>    2.0252    0.0000 </r>
       <r>    2.0303    0.0000 </r>
       <r>    2.0369    0.0000 </r>
       <r>    2.0483    0.0000 </r>
       <r>    2.0536    0.0000 </r>
       <r>    2.0656    0.0000 </r>
       <r>    2.0720    0.0000 </r>
       <r>    2.0777    0.0000 </r>
       <r>    2.0946    0.0000 </r>
       <r>    2.0980    0.0000 </r>
       <r>    2.1049    0.0000 </r>
       <r>    2.1118    0.0000 </r>
       <r>    2.1208    0.0000 </r>
       <r>    2.1262    0.0000 </r>
       <r>    2.1360    0.0000 </r>
       <r>    2.1401    0.0000 </r>
       <r>    2.1456    0.0000 </r>
       <r>    2.1529    0.0000 </r>
       <r>    2.1607    0.0000 </r>
       <r>    2.1688    0.0000 </r>
       <r>    2.1774    0.0000 </r>
       <r>    2.1786    0.0000 </r>
       <r>    2.1925    0.0000 </r>
       <r>    2.1986    0.0000 </r>
       <r>    2.2047    0.0000 </r>
       <r>    2.2190    0.0000 </r>
       <r>    2.2248    0.0000 </r>
       <r>    2.2330    0.0000 </r>
       <r>    2.2417    0.0000 </r>
       <r>    2.2483    0.0000 </r>
       <r>    2.2577    0.0000 </r>
       <r>    2.2652    0.0000 </r>
       <r>    2.2734    0.0000 </r>
       <r>    2.2785    0.0000 </r>
       <r>    2.2878    0.0000 </r>
       <r>    2.2934    0.0000 </r>
       <r>    2.2993    0.0000 </r>
       <r>    2.3112    0.0000 </r>
       <r>    2.3167    0.0000 </r>
       <r>    2.3203    0.0000 </r>
       <r>    2.3319    0.0000 </r>
       <r>    2.3534    0.0000 </r>
       <r>    2.3592    0.0000 </r>
       <r>    2.3765    0.0000 </r>
       <r>    2.3915    0.0000 </r>
       <r>    2.3985    0.0000 </r>
       <r>    2.4014    0.0000 </r>
       <r>    2.4139    0.0000 </r>
       <r>    2.4264    0.0000 </r>
       <r>    2.4337    0.0000 </r>
       <r>    2.4423    0.0000 </r>
       <r>    2.4581    0.0000 </r>
       <r>    2.4891    0.0000 </r>
       <r>    2.5043    0.0000 </r>
       <r>    2.5128    0.0000 </r>
       <r>    2.5316    0.0000 </r>
       <r>    2.5498    0.0000 </r>
       <r>    2.5567    0.0000 </r>
       <r>    2.5634    0.0000 </r>
       <r>    2.5791    0.0000 </r>
       <r>    2.5923    0.0000 </r>
       <r>    2.6006    0.0000 </r>
       <r>    2.6430    0.0000 </r>
       <r>    2.6540    0.0000 </r>
       <r>    2.6658    0.0000 </r>
       <r>    2.6774    0.0000 </r>
       <r>    2.6891    0.0000 </r>
       <r>    2.6952    0.0000 </r>
       <r>    2.7079    0.0000 </r>
       <r>    2.7178    0.0000 </r>
       <r>    2.7265    0.0000 </r>
       <r>    2.7320    0.0000 </r>
       <r>    2.7607    0.0000 </r>
       <r>    2.7848    0.0000 </r>
       <r>    2.8163    0.0000 </r>
       <r>    2.8521    0.0000 </r>
       <r>    2.8655    0.0000 </r>
       <r>    2.8975    0.0000 </r>
       <r>    2.9283    0.0000 </r>
       <r>    2.9529    0.0000 </r>
       <r>    2.9861    0.0000 </r>
       <r>    3.0225    0.0000 </r>
       <r>    3.0329    0.0000 </r>
       <r>    3.0995    0.0000 </r>
       <r>    3.1549    0.0000 </r>
       <r>    3.1902    0.0000 </r>
       <r>    3.2160    0.0000 </r>
       <r>    3.2658    0.0000 </r>
       <r>    3.3012    0.0000 </r>
       <r>    3.3254    0.0000 </r>
       <r>    3.3400    0.0000 </r>
       <r>    3.3731    0.0000 </r>
       <r>    3.3798    0.0000 </r>
       <r>    3.4122    0.0000 </r>
       <r>    3.4281    0.0000 </r>
       <r>    3.4467    0.0000 </r>
       <r>    3.4618    0.0000 </r>
       <r>    3.4904    0.0000 </r>
       <r>    3.5208    0.0000 </r>
       <r>    3.5355    0.0000 </r>
       <r>    3.5674    0.0000 </r>
       <r>    3.6115    0.0000 </r>
       <r>    3.6198    0.0000 </r>
       <r>    3.6368    0.0000 </r>
       <r>    3.6524    0.0000 </r>
       <r>    3.6720    0.0000 </r>
       <r>    3.7560    0.0000 </r>
       <r>    3.7919    0.0000 </r>
       <r>    3.8027    0.0000 </r>
       <r>    3.8339    0.0000 </r>
       <r>    3.8550    0.0000 </r>
       <r>    3.8665    0.0000 </r>
       <r>    3.8969    0.0000 </r>
       <r>    3.9695    0.0000 </r>
       <r>    3.9965    0.0000 </r>
       <r>    4.0177    0.0000 </r>
       <r>    4.0520    0.0000 </r>
       <r>    4.0679    0.0000 </r>
       <r>    4.0786    0.0000 </r>
       <r>    4.1122    0.0000 </r>
       <r>    4.1450    0.0000 </r>
       <r>    4.1596    0.0000 </r>
       <r>    4.1740    0.0000 </r>
       <r>    4.1809    0.0000 </r>
       <r>    4.2085    0.0000 </r>
       <r>    4.2187    0.0000 </r>
       <r>    4.2659    0.0000 </r>
       <r>    4.3108    0.0000 </r>
       <r>    4.3371    0.0000 </r>
       <r>    4.3779    0.0000 </r>
       <r>    4.4213    0.0000 </r>
       <r>    4.4557    0.0000 </r>
       <r>    4.4860    0.0000 </r>
       <r>    4.5550    0.0000 </r>
      </set>
      <set comment="kpoint 54">
       <r>  -14.8622    1.0000 </r>
       <r>  -14.8350    1.0000 </r>
       <r>  -14.6542    1.0000 </r>
       <r>  -14.6141    1.0000 </r>
       <r>  -14.4860    1.0000 </r>
       <r>  -14.4670    1.0000 </r>
       <r>  -14.4461    1.0000 </r>
       <r>  -14.4080    1.0000 </r>
       <r>  -14.0773    1.0000 </r>
       <r>  -14.0708    1.0000 </r>
       <r>  -14.0436    1.0000 </r>
       <r>  -13.9867    1.0000 </r>
       <r>  -13.8305    1.0000 </r>
       <r>  -13.7700    1.0000 </r>
       <r>  -13.6288    1.0000 </r>
       <r>  -13.6148    1.0000 </r>
       <r>  -13.6092    1.0000 </r>
       <r>  -13.5663    1.0000 </r>
       <r>  -13.5518    1.0000 </r>
       <r>  -13.5426    1.0000 </r>
       <r>  -13.5307    1.0000 </r>
       <r>  -13.5157    1.0000 </r>
       <r>  -13.4978    1.0000 </r>
       <r>  -13.4854    1.0000 </r>
       <r>  -13.4146    1.0000 </r>
       <r>  -13.3990    1.0000 </r>
       <r>  -13.3906    1.0000 </r>
       <r>  -13.3651    1.0000 </r>
       <r>  -13.3057    1.0000 </r>
       <r>  -13.2942    1.0000 </r>
       <r>  -11.3226    1.0000 </r>
       <r>  -11.3031    1.0000 </r>
       <r>  -11.2087    1.0000 </r>
       <r>  -11.1716    1.0000 </r>
       <r>  -11.0384    1.0000 </r>
       <r>  -11.0128    1.0000 </r>
       <r>   -6.3002    1.0000 </r>
       <r>   -6.2713    1.0000 </r>
       <r>   -6.0574    1.0000 </r>
       <r>   -5.9790    1.0000 </r>
       <r>   -5.9600    1.0000 </r>
       <r>   -5.8809    1.0000 </r>
       <r>   -5.7676    1.0000 </r>
       <r>   -5.7302    1.0000 </r>
       <r>   -5.6169    1.0000 </r>
       <r>   -5.5296    1.0000 </r>
       <r>   -5.3562    1.0000 </r>
       <r>   -5.2775    1.0000 </r>
       <r>   -5.1985    1.0000 </r>
       <r>   -5.1928    1.0000 </r>
       <r>   -5.1532    1.0000 </r>
       <r>   -5.1460    1.0000 </r>
       <r>   -5.1091    1.0000 </r>
       <r>   -5.0993    1.0000 </r>
       <r>   -5.0761    1.0000 </r>
       <r>   -5.0117    1.0000 </r>
       <r>   -4.9439    1.0000 </r>
       <r>   -4.9348    1.0000 </r>
       <r>   -4.9289    1.0000 </r>
       <r>   -4.8980    1.0000 </r>
       <r>   -4.8890    1.0000 </r>
       <r>   -4.8529    1.0000 </r>
       <r>   -4.7380    1.0000 </r>
       <r>   -4.7077    1.0000 </r>
       <r>   -4.6882    1.0000 </r>
       <r>   -4.6493    1.0000 </r>
       <r>   -4.6314    1.0000 </r>
       <r>   -4.5969    1.0000 </r>
       <r>   -4.5754    1.0000 </r>
       <r>   -4.5510    1.0000 </r>
       <r>   -4.5146    1.0000 </r>
       <r>   -4.4731    1.0000 </r>
       <r>   -4.3271    1.0000 </r>
       <r>   -4.2892    1.0000 </r>
       <r>   -4.2736    1.0000 </r>
       <r>   -4.2639    1.0000 </r>
       <r>   -4.2514    1.0000 </r>
       <r>   -4.2222    1.0000 </r>
       <r>   -4.2136    1.0000 </r>
       <r>   -4.1387    1.0000 </r>
       <r>   -4.0686    1.0000 </r>
       <r>   -4.0102    1.0000 </r>
       <r>   -3.9820    1.0000 </r>
       <r>   -3.8913    1.0000 </r>
       <r>   -3.8857    1.0000 </r>
       <r>   -3.8731    1.0000 </r>
       <r>   -3.8484    1.0000 </r>
       <r>   -3.8333    1.0000 </r>
       <r>   -3.8278    1.0000 </r>
       <r>   -3.7770    1.0000 </r>
       <r>   -3.6646    1.0000 </r>
       <r>   -3.6463    1.0000 </r>
       <r>   -3.6308    1.0000 </r>
       <r>   -3.6140    1.0000 </r>
       <r>   -3.5966    1.0000 </r>
       <r>   -3.5824    1.0000 </r>
       <r>   -3.5612    1.0000 </r>
       <r>   -3.5087    1.0000 </r>
       <r>   -3.4984    1.0000 </r>
       <r>   -3.4747    1.0000 </r>
       <r>   -3.4638    1.0000 </r>
       <r>   -3.4380    1.0000 </r>
       <r>   -3.2338    1.0000 </r>
       <r>   -3.1912    1.0000 </r>
       <r>   -3.1731    1.0000 </r>
       <r>   -3.1556    1.0000 </r>
       <r>   -3.1398    1.0000 </r>
       <r>   -3.1360    1.0000 </r>
       <r>   -3.1024    1.0000 </r>
       <r>   -3.0733    1.0000 </r>
       <r>   -3.0566    1.0000 </r>
       <r>   -3.0152    1.0000 </r>
       <r>   -3.0021    1.0000 </r>
       <r>   -2.9641    1.0000 </r>
       <r>   -2.9471    1.0000 </r>
       <r>   -2.9401    1.0000 </r>
       <r>   -2.9145    1.0000 </r>
       <r>   -2.9041    1.0000 </r>
       <r>   -2.8635    1.0000 </r>
       <r>   -2.8282    1.0000 </r>
       <r>   -2.8218    1.0000 </r>
       <r>   -2.8155    1.0000 </r>
       <r>   -2.7981    1.0000 </r>
       <r>   -2.7696    1.0000 </r>
       <r>   -2.7470    1.0000 </r>
       <r>   -2.7354    1.0000 </r>
       <r>   -2.6957    1.0000 </r>
       <r>   -2.6777    1.0000 </r>
       <r>   -2.6606    1.0000 </r>
       <r>   -2.6043    1.0000 </r>
       <r>   -2.5261    1.0000 </r>
       <r>   -2.5080    1.0000 </r>
       <r>   -2.4840    1.0000 </r>
       <r>   -2.4734    1.0000 </r>
       <r>   -2.4244    1.0000 </r>
       <r>   -2.4106    1.0000 </r>
       <r>   -2.3373    1.0000 </r>
       <r>   -2.3187    1.0000 </r>
       <r>   -2.2796    1.0000 </r>
       <r>   -2.2550    1.0000 </r>
       <r>   -2.1559    1.0000 </r>
       <r>   -2.0488    1.0000 </r>
       <r>   -2.0055    1.0000 </r>
       <r>   -1.9426    1.0000 </r>
       <r>   -1.9013    1.0000 </r>
       <r>   -1.8599    1.0000 </r>
       <r>   -1.8523    1.0000 </r>
       <r>   -1.8216    1.0000 </r>
       <r>   -1.7960    1.0000 </r>
       <r>   -1.7843    1.0000 </r>
       <r>   -1.7660    1.0000 </r>
       <r>   -1.7347    1.0000 </r>
       <r>   -1.7086    1.0000 </r>
       <r>   -1.6968    1.0000 </r>
       <r>   -1.6740    1.0000 </r>
       <r>   -1.6531    1.0000 </r>
       <r>   -1.6375    1.0000 </r>
       <r>   -1.6187    1.0000 </r>
       <r>   -1.5941    1.0000 </r>
       <r>   -1.5911    1.0000 </r>
       <r>   -1.5792    1.0000 </r>
       <r>   -1.5700    1.0000 </r>
       <r>   -1.5664    1.0000 </r>
       <r>   -1.5463    1.0000 </r>
       <r>   -1.5287    1.0000 </r>
       <r>   -1.4914    1.0000 </r>
       <r>   -1.4668    1.0000 </r>
       <r>   -1.4495    1.0000 </r>
       <r>   -1.4267    1.0000 </r>
       <r>   -1.3824    1.0000 </r>
       <r>   -1.3383    1.0000 </r>
       <r>   -1.3214    1.0000 </r>
       <r>   -1.2959    1.0000 </r>
       <r>   -1.2813    1.0000 </r>
       <r>   -1.2717    1.0000 </r>
       <r>   -1.2509    1.0000 </r>
       <r>   -1.2345    1.0000 </r>
       <r>   -1.2078    1.0000 </r>
       <r>   -1.1851    1.0000 </r>
       <r>   -1.1687    1.0000 </r>
       <r>   -1.1491    1.0000 </r>
       <r>   -1.1386    1.0000 </r>
       <r>   -1.1299    1.0000 </r>
       <r>   -1.1158    1.0000 </r>
       <r>   -1.1017    1.0000 </r>
       <r>   -1.0790    1.0000 </r>
       <r>   -1.0606    1.0000 </r>
       <r>   -1.0366    1.0000 </r>
       <r>   -1.0188    1.0000 </r>
       <r>   -1.0126    1.0000 </r>
       <r>   -0.9962    1.0000 </r>
       <r>   -0.9850    1.0000 </r>
       <r>   -0.9726    1.0000 </r>
       <r>   -0.9647    1.0000 </r>
       <r>   -0.9538    1.0000 </r>
       <r>   -0.9471    1.0000 </r>
       <r>   -0.9325    1.0000 </r>
       <r>   -0.9191    1.0000 </r>
       <r>   -0.9045    1.0000 </r>
       <r>   -0.8903    1.0000 </r>
       <r>   -0.8774    1.0000 </r>
       <r>   -0.8744    1.0000 </r>
       <r>   -0.8576    1.0000 </r>
       <r>   -0.8447    1.0000 </r>
       <r>   -0.8282    1.0000 </r>
       <r>   -0.8220    1.0000 </r>
       <r>   -0.8005    1.0000 </r>
       <r>   -0.7941    1.0000 </r>
       <r>   -0.7867    1.0000 </r>
       <r>   -0.7758    1.0000 </r>
       <r>   -0.7640    1.0000 </r>
       <r>   -0.7484    1.0000 </r>
       <r>   -0.7419    1.0000 </r>
       <r>   -0.7331    1.0000 </r>
       <r>   -0.7139    1.0000 </r>
       <r>   -0.7014    1.0000 </r>
       <r>   -0.6927    1.0000 </r>
       <r>   -0.6800    1.0000 </r>
       <r>   -0.6757    1.0000 </r>
       <r>   -0.6702    1.0000 </r>
       <r>   -0.6566    1.0000 </r>
       <r>   -0.6415    1.0000 </r>
       <r>   -0.6359    1.0000 </r>
       <r>   -0.6314    1.0000 </r>
       <r>   -0.6260    1.0000 </r>
       <r>   -0.6204    1.0000 </r>
       <r>   -0.6133    1.0000 </r>
       <r>   -0.6091    1.0000 </r>
       <r>   -0.5990    1.0000 </r>
       <r>   -0.5912    1.0000 </r>
       <r>   -0.5812    1.0000 </r>
       <r>   -0.5685    1.0000 </r>
       <r>   -0.5574    1.0000 </r>
       <r>   -0.5404    1.0000 </r>
       <r>   -0.5249    1.0000 </r>
       <r>   -0.5173    1.0000 </r>
       <r>   -0.5133    1.0000 </r>
       <r>   -0.5035    1.0000 </r>
       <r>   -0.4852    1.0000 </r>
       <r>   -0.4700    1.0000 </r>
       <r>   -0.4481    1.0000 </r>
       <r>   -0.4319    1.0000 </r>
       <r>   -0.4189    1.0000 </r>
       <r>   -0.4145    1.0000 </r>
       <r>   -0.4012    1.0000 </r>
       <r>   -0.3803    1.0000 </r>
       <r>   -0.3720    1.0000 </r>
       <r>   -0.3545    1.0000 </r>
       <r>   -0.3452    1.0000 </r>
       <r>   -0.3392    1.0000 </r>
       <r>   -0.3359    1.0000 </r>
       <r>   -0.3230    1.0000 </r>
       <r>   -0.3122    1.0000 </r>
       <r>   -0.3052    1.0000 </r>
       <r>   -0.2935    1.0000 </r>
       <r>   -0.2793    1.0000 </r>
       <r>   -0.2756    1.0000 </r>
       <r>   -0.2564    1.0000 </r>
       <r>   -0.2507    1.0000 </r>
       <r>   -0.2444    1.0000 </r>
       <r>   -0.2312    1.0000 </r>
       <r>   -0.2265    1.0000 </r>
       <r>   -0.2155    1.0000 </r>
       <r>   -0.2054    1.0000 </r>
       <r>   -0.1947    1.0000 </r>
       <r>   -0.1838    1.0000 </r>
       <r>   -0.1631    1.0000 </r>
       <r>   -0.1458    1.0000 </r>
       <r>   -0.1207    1.0000 </r>
       <r>   -0.1155    1.0000 </r>
       <r>   -0.0985    1.0000 </r>
       <r>   -0.0786    1.0000 </r>
       <r>   -0.0666    1.0000 </r>
       <r>   -0.0385    1.0000 </r>
       <r>   -0.0133    1.0000 </r>
       <r>    0.0077    1.0000 </r>
       <r>    0.0145    1.0000 </r>
       <r>    0.0294    1.0000 </r>
       <r>    0.0414    1.0000 </r>
       <r>    0.0595    1.0000 </r>
       <r>    0.0725    1.0000 </r>
       <r>    0.0920    1.0000 </r>
       <r>    0.1046    1.0000 </r>
       <r>    0.1102    1.0000 </r>
       <r>    0.1253    1.0000 </r>
       <r>    0.1432    1.0000 </r>
       <r>    0.1570    1.0000 </r>
       <r>    0.1647    1.0000 </r>
       <r>    0.1733    1.0000 </r>
       <r>    0.1879    1.0000 </r>
       <r>    0.1928    1.0000 </r>
       <r>    0.2036    1.0000 </r>
       <r>    0.2083    1.0000 </r>
       <r>    0.2468    1.0000 </r>
       <r>    0.2559    1.0000 </r>
       <r>    0.2721    1.0000 </r>
       <r>    0.2886    1.0000 </r>
       <r>    0.3163    1.0000 </r>
       <r>    0.3190    1.0000 </r>
       <r>    0.3480    1.0000 </r>
       <r>    0.3586    1.0000 </r>
       <r>    0.3638    1.0000 </r>
       <r>    0.3735    1.0000 </r>
       <r>    0.3971    1.0000 </r>
       <r>    0.4098    1.0000 </r>
       <r>    0.4294    1.0000 </r>
       <r>    0.4467    1.0000 </r>
       <r>    0.4675    1.0000 </r>
       <r>    0.4772    1.0000 </r>
       <r>    0.4930    1.0000 </r>
       <r>    0.4989    1.0000 </r>
       <r>    0.5230    1.0000 </r>
       <r>    0.5564    1.0000 </r>
       <r>    0.5840    1.0000 </r>
       <r>    0.6185    1.0000 </r>
       <r>    0.6341    1.0000 </r>
       <r>    0.6495    1.0000 </r>
       <r>    0.6608    1.0000 </r>
       <r>    0.6929    1.0000 </r>
       <r>    0.7168    1.0000 </r>
       <r>    0.7361    1.0000 </r>
       <r>    0.7599    1.0000 </r>
       <r>    0.7824    1.0000 </r>
       <r>    0.7907    1.0000 </r>
       <r>    0.8325    1.0000 </r>
       <r>    0.8445    1.0000 </r>
       <r>    0.8738    1.0000 </r>
       <r>    0.8956    1.0000 </r>
       <r>    0.9073    1.0000 </r>
       <r>    0.9228    1.0000 </r>
       <r>    0.9370    1.0000 </r>
       <r>    0.9465    1.0000 </r>
       <r>    0.9647    1.0000 </r>
       <r>    0.9923    1.0000 </r>
       <r>    0.9994    1.0000 </r>
       <r>    1.0105    1.0000 </r>
       <r>    1.0262    1.0000 </r>
       <r>    1.0274    1.0000 </r>
       <r>    1.0462    1.0000 </r>
       <r>    1.0667    1.0000 </r>
       <r>    1.0992    1.0000 </r>
       <r>    1.1133    1.0000 </r>
       <r>    1.1222    1.0000 </r>
       <r>    1.1382    1.0000 </r>
       <r>    1.1431    1.0000 </r>
       <r>    1.1525    1.0000 </r>
       <r>    1.1729    1.0000 </r>
       <r>    1.1861    1.0000 </r>
       <r>    1.1946    1.0000 </r>
       <r>    1.2001    1.0000 </r>
       <r>    1.2098    1.0000 </r>
       <r>    1.2128    1.0000 </r>
       <r>    1.2349    1.0000 </r>
       <r>    1.2370    1.0000 </r>
       <r>    1.2474    1.0000 </r>
       <r>    1.2584    1.0000 </r>
       <r>    1.2666    1.0000 </r>
       <r>    1.2714    1.0000 </r>
       <r>    1.2819    1.0000 </r>
       <r>    1.2847    1.0000 </r>
       <r>    1.2918    1.0000 </r>
       <r>    1.2957    1.0000 </r>
       <r>    1.3092    1.0000 </r>
       <r>    1.3160    1.0000 </r>
       <r>    1.3225    1.0000 </r>
       <r>    1.3317    1.0000 </r>
       <r>    1.3408    1.0000 </r>
       <r>    1.3456    1.0000 </r>
       <r>    1.3512    1.0000 </r>
       <r>    1.3583    1.0000 </r>
       <r>    1.3676    1.0000 </r>
       <r>    1.3789    1.0000 </r>
       <r>    1.3886    1.0000 </r>
       <r>    1.3956    1.0000 </r>
       <r>    1.4003    1.0000 </r>
       <r>    1.4122    1.0000 </r>
       <r>    1.4177    1.0000 </r>
       <r>    1.4259    1.0000 </r>
       <r>    1.4345    1.0000 </r>
       <r>    1.4476    1.0000 </r>
       <r>    1.4517    1.0000 </r>
       <r>    1.4626    1.0000 </r>
       <r>    1.4670    1.0000 </r>
       <r>    1.4707    1.0000 </r>
       <r>    1.4802    1.0000 </r>
       <r>    1.4865    1.0000 </r>
       <r>    1.4897    1.0000 </r>
       <r>    1.5005    1.0000 </r>
       <r>    1.5054    1.0000 </r>
       <r>    1.5127    1.0000 </r>
       <r>    1.5229    1.0000 </r>
       <r>    1.5253    1.0000 </r>
       <r>    1.5281    1.0000 </r>
       <r>    1.5364    1.0000 </r>
       <r>    1.5389    1.0000 </r>
       <r>    1.5466    1.0000 </r>
       <r>    1.5587    1.0000 </r>
       <r