Distance=0.500
 running on   16 total cores
 distrk:  each k-point on    8 cores,    2 groups
 distr:  one band on    4 cores,    2 groups
 using from now: INCAR     
 vasp.5.4.4.18Apr17-6-g9f103f2a35 (build Nov 27 2019 20:08:17) complex          
  
 POSCAR found type information on POSCAR  Ti
 POSCAR found :  1 types and      54 ions
 scaLAPACK will be used

 ----------------------------------------------------------------------------- 
|                                                                             |
|           W    W    AA    RRRRR   N    N  II  N    N   GGGG   !!!           |
|           W    W   A  A   R    R  NN   N  II  NN   N  G    G  !!!           |
|           W    W  A    A  R    R  N N  N  II  N N  N  G       !!!           |
|           W WW W  AAAAAA  RRRRR   N  N N  II  N  N N  G  GGG   !            |
|           WW  WW  A    A  R   R   N   NN  II  N   NN  G    G                |
|           W    W  A    A  R    R  N    N  II  N    N   GGGG   !!!           |
|                                                                             |
|      You have enabled k-point parallelism (KPAR>1).                         |
|      This developmental code was originally  written by Paul Kent at ORNL,  |
|      and carefully double checked in Vienna.                                |
|      GW as well as linear response parallelism added by Martijn Marsman     |
|      and Georg Kresse.                                                      |
|      Carefully verify results versus KPAR=1.                                |
|      Report problems to Paul Kent and Vienna.                               |
|                                                                             |
 ----------------------------------------------------------------------------- 

 LDA part: xc-table for Pade appr. of Perdew
 POSCAR found type information on POSCAR  Ti
 POSCAR found :  1 types and      54 ions
 POSCAR, INCAR and KPOINTS ok, starting setup
 FFT: planning ...
 WAVECAR not read
 entering main loop
       N       E                     dE             d eps       ncg     rms          rms(c)
DAV:   1     0.956966527230E+03    0.95697E+03   -0.62015E+04  1904   0.117E+03
DAV:   2    -0.283630125122E+03   -0.12406E+04   -0.12039E+04  1904   0.260E+02
DAV:   3    -0.469610042713E+03   -0.18598E+03   -0.17682E+03  2960   0.897E+01
DAV:   4    -0.485333649414E+03   -0.15724E+02   -0.14943E+02  3048   0.266E+01
DAV:   5    -0.486226283321E+03   -0.89263E+00   -0.84964E+00  3040   0.484E+00    0.859E+01
DAV:   6    -0.948700985235E+03   -0.46247E+03   -0.55850E+03  3760   0.110E+02    0.129E+02
DAV:   7    -0.418146654390E+03    0.53055E+03   -0.65830E+03  3432   0.154E+02    0.448E+01
DAV:   8    -0.407263698788E+03    0.10883E+02   -0.99814E+02  3088   0.867E+01    0.312E+01
DAV:   9    -0.414864043430E+03   -0.76003E+01   -0.17036E+02  3128   0.253E+01    0.283E+01
DAV:  10    -0.417858175645E+03   -0.29941E+01   -0.14048E+01  3144   0.659E+00    0.309E+01
DAV:  11    -0.417194563152E+03    0.66361E+00   -0.11895E+00  3104   0.155E+00    0.303E+01
DAV:  12    -0.409207029041E+03    0.79875E+01   -0.63493E+00  2400   0.828E+00    0.214E+01
DAV:  13    -0.400521124889E+03    0.86859E+01   -0.27679E+01  2528   0.163E+01    0.692E+00
DAV:  14    -0.400535667462E+03   -0.14543E-01   -0.22173E+00  2832   0.451E+00    0.649E+00
DAV:  15    -0.400663221630E+03   -0.12755E+00   -0.16157E-01  2760   0.106E+00    0.610E+00
DAV:  16    -0.400387646330E+03    0.27558E+00   -0.97361E-01  2936   0.262E+00    0.189E+00
DAV:  17    -0.400300013592E+03    0.87633E-01   -0.28560E-01  2760   0.142E+00    0.153E+00
DAV:  18    -0.400258244891E+03    0.41769E-01   -0.63303E-02  2888   0.563E-01    0.100E+00
DAV:  19    -0.400254924925E+03    0.33200E-02   -0.53437E-02  2976   0.611E-01    0.938E-01
DAV:  20    -0.400241740439E+03    0.13184E-01   -0.49458E-02  2648   0.418E-01    0.424E-01
DAV:  21    -0.400243972144E+03   -0.22317E-02   -0.10400E-02  3112   0.156E-01    0.323E-01
DAV:  22    -0.400245324990E+03   -0.13528E-02   -0.48844E-03  2928   0.153E-01    0.110E-01
DAV:  23    -0.400245660266E+03   -0.33528E-03   -0.10276E-03  2888   0.567E-02    0.588E-02
DAV:  24    -0.400245690332E+03   -0.30067E-04   -0.25729E-04  2448   0.368E-02    0.409E-02
DAV:  25    -0.400245701929E+03   -0.11596E-04   -0.59413E-05  2488   0.193E-02    0.280E-02
DAV:  26    -0.400245696200E+03    0.57282E-05   -0.42374E-05  2344   0.131E-02    0.887E-03
DAV:  27    -0.400245695652E+03    0.54787E-06   -0.66180E-06  1448   0.860E-03
   1 F= -.40024570E+03 E0= -.40019127E+03  d E =-.108851E+00
 running on   16 total cores
 distrk:  each k-point on    8 cores,    2 groups
 distr:  one band on    4 cores,    2 groups
 using from now: INCAR     
 vasp.5.4.4.18Apr17-6-g9f103f2a35 (build Nov 27 2019 20:08:17) complex          
  
 POSCAR found type information on POSCAR  Ti
 POSCAR found :  1 types and      36 ions
 scaLAPACK will be used

 ----------------------------------------------------------------------------- 
|                                                                             |
|           W    W    AA    RRRRR   N    N  II  N    N   GGGG   !!!           |
|           W    W   A  A   R    R  NN   N  II  NN   N  G    G  !!!           |
|           W    W  A    A  R    R  N N  N  II  N N  N  G       !!!           |
|           W WW W  AAAAAA  RRRRR   N  N N  II  N  N N  G  GGG   !            |
|           WW  WW  A    A  R   R   N   NN  II  N   NN  G    G                |
|           W    W  A    A  R    R  N    N  II  N    N   GGGG   !!!           |
|                                                                             |
|      You have enabled k-point parallelism (KPAR>1).                         |
|      This developmental code was originally  written by Paul Kent at ORNL,  |
|      and carefully double checked in Vienna.                                |
|      GW as well as linear response parallelism added by Martijn Marsman     |
|      and Georg Kresse.                                                      |
|      Carefully verify results versus KPAR=1.                                |
|      Report problems to Paul Kent and Vienna.                               |
|                                                                             |
 ----------------------------------------------------------------------------- 

 LDA part: xc-table for Pade appr. of Perdew
 POSCAR found type information on POSCAR  Ti
 POSCAR found :  1 types and      36 ions
 POSCAR, INCAR and KPOINTS ok, starting setup
 FFT: planning ...
 WAVECAR not read
 WARNING: random wavefunctions but no delay for mixing, default for NELMDL
 entering main loop
       N       E                     dE             d eps       ncg     rms          rms(c)
DAV:   1     0.712147323791E+03    0.71215E+03   -0.40877E+04  1288   0.109E+03
DAV:   2    -0.187138575170E+03   -0.89929E+03   -0.86398E+03  1288   0.245E+02
DAV:   3    -0.320692731109E+03   -0.13355E+03   -0.12523E+03  1936   0.874E+01
DAV:   4    -0.330635911051E+03   -0.99432E+01   -0.93101E+01  1904   0.283E+01
DAV:   5    -0.331137653343E+03   -0.50174E+00   -0.49143E+00  2032   0.561E+00    0.782E+01
DAV:   6    -0.507542732523E+03   -0.17641E+03   -0.29794E+03  2400   0.999E+01    0.100E+02
DAV:   7    -0.281114984055E+03    0.22643E+03   -0.37954E+03  2236   0.173E+02    0.330E+01
DAV:   8    -0.287297509530E+03   -0.61825E+01   -0.58933E+02  1920   0.773E+01    0.399E+01
DAV:   9    -0.267683097502E+03    0.19614E+02   -0.11301E+02  2020   0.356E+01    0.283E+01
DAV:  10    -0.264830398410E+03    0.28527E+01   -0.88535E+00  2072   0.790E+00    0.253E+01
DAV:  11    -0.263099875481E+03    0.17305E+01   -0.18042E+00  2108   0.385E+00    0.223E+01
DAV:  12    -0.260968504376E+03    0.21314E+01   -0.79996E+00  1976   0.848E+00    0.185E+01
DAV:  13    -0.256312182696E+03    0.46563E+01   -0.21143E+01  2096   0.128E+01    0.621E+00
DAV:  14    -0.256045892002E+03    0.26629E+00   -0.25516E+00  2080   0.400E+00    0.402E+00
DAV:  15    -0.256253774243E+03   -0.20788E+00   -0.10271E+00  2032   0.286E+00    0.522E+00
DAV:  16    -0.255886649344E+03    0.36712E+00   -0.18710E+00  2088   0.344E+00    0.249E+00
DAV:  17    -0.255809861858E+03    0.76787E-01   -0.75373E-01  2008   0.274E+00    0.123E+00
DAV:  18    -0.255801449312E+03    0.84125E-02   -0.13846E-01  1896   0.107E+00    0.986E-01
DAV:  19    -0.255795231830E+03    0.62175E-02   -0.11514E-01  1960   0.110E+00    0.445E-01
DAV:  20    -0.255799298081E+03   -0.40663E-02   -0.10230E-01  2008   0.824E-01    0.806E-01
DAV:  21    -0.255795111233E+03    0.41868E-02   -0.12087E-01  1944   0.964E-01    0.597E-01
DAV:  22    -0.255792788001E+03    0.23232E-02   -0.17858E-02  1952   0.374E-01    0.145E-01
DAV:  23    -0.255795768178E+03   -0.29802E-02   -0.10889E-02  1992   0.277E-01    0.304E-01
DAV:  24    -0.255796177851E+03   -0.40967E-03   -0.90876E-03  1952   0.259E-01    0.981E-02
DAV:  25    -0.255797035536E+03   -0.85768E-03   -0.68744E-04  1928   0.603E-02    0.853E-02
DAV:  26    -0.255797474618E+03   -0.43908E-03   -0.28467E-04  2040   0.468E-02    0.279E-02
DAV:  27    -0.255797603671E+03   -0.12905E-03   -0.99966E-05  2056   0.219E-02    0.121E-02
DAV:  28    -0.255797631186E+03   -0.27515E-04   -0.73753E-06  1000   0.965E-03    0.141E-02
DAV:  29    -0.255797638368E+03   -0.71820E-05   -0.32083E-06   896   0.600E-03    0.910E-03
DAV:  30    -0.255797641630E+03   -0.32625E-05   -0.18414E-06   888   0.408E-03
   1 F= -.25579764E+03 E0= -.25572886E+03  d E =-.137566E+00
 running on   16 total cores
 distrk:  each k-point on    8 cores,    2 groups
 distr:  one band on    4 cores,    2 groups
 using from now: INCAR     
 vasp.5.4.4.18Apr17-6-g9f103f2a35 (build Nov 27 2019 20:08:17) complex          
  
 POSCAR found type information on POSCAR  Ti
 POSCAR found :  1 types and      90 ions
 scaLAPACK will be used

 ----------------------------------------------------------------------------- 
|                                                                             |
|           W    W    AA    RRRRR   N    N  II  N    N   GGGG   !!!           |
|           W    W   A  A   R    R  NN   N  II  NN   N  G    G  !!!           |
|           W    W  A    A  R    R  N N  N  II  N N  N  G       !!!           |
|           W WW W  AAAAAA  RRRRR   N  N N  II  N  N N  G  GGG   !            |
|           WW  WW  A    A  R   R   N   NN  II  N   NN  G    G                |
|           W    W  A    A  R    R  N    N  II  N    N   GGGG   !!!           |
|                                                                             |
|      You have enabled k-point parallelism (KPAR>1).                         |
|      This developmental code was originally  written by Paul Kent at ORNL,  |
|      and carefully double checked in Vienna.                                |
|      GW as well as linear response parallelism added by Martijn Marsman     |
|      and Georg Kresse.                                                      |
|      Carefully verify results versus KPAR=1.                                |
|      Report problems to Paul Kent and Vienna.                               |
|                                                                             |
 ----------------------------------------------------------------------------- 

 LDA part: xc-table for Pade appr. of Perdew
 POSCAR found type information on POSCAR  Ti
 POSCAR found :  1 types and      90 ions

 ----------------------------------------------------------------------------- 
|                                                                             |
|           W    W    AA    RRRRR   N    N  II  N    N   GGGG   !!!           |
|           W    W   A  A   R    R  NN   N  II  NN   N  G    G  !!!           |
|           W    W  A    A  R    R  N N  N  II  N N  N  G       !!!           |
|           W WW W  AAAAAA  RRRRR   N  N N  II  N  N N  G  GGG   !            |
|           WW  WW  A    A  R   R   N   NN  II  N   NN  G    G                |
|           W    W  A    A  R    R  N    N  II  N    N   GGGG   !!!           |
|                                                                             |
|      The distance between some ions is very small                           |
|      please check the nearest neigbor list in the OUTCAR file               |
|          I HOPE YOU KNOW, WHAT YOU ARE  DOING                               |
|                                                                             |
 ----------------------------------------------------------------------------- 

 POSCAR, INCAR and KPOINTS ok, starting setup
 FFT: planning ...
 WAVECAR not read
 WARNING: random wavefunctions but no delay for mixing, default for NELMDL
 entering main loop
       N       E                     dE             d eps       ncg     rms          rms(c)
DAV:   1     0.184465340554E+04    0.18447E+04   -0.10772E+05  3164   0.128E+03
DAV:   2    -0.464991703985E+03   -0.23096E+04   -0.22480E+04  3164   0.308E+02
DAV:   3    -0.777662753932E+03   -0.31267E+03   -0.29437E+03  4560   0.116E+02
DAV:   4    -0.803430132378E+03   -0.25767E+02   -0.24433E+02  4568   0.308E+01
DAV:   5    -0.804952247165E+03   -0.15221E+01   -0.14620E+01  4776   0.623E+00    0.159E+02
DAV:   6    -0.474911259267E+04   -0.39442E+04   -0.59501E+04  6326   0.533E+02    0.295E+02
DAV:   7    -0.110360655239E+04    0.36455E+04   -0.19382E+04  5460   0.263E+02    0.121E+02
DAV:   8    -0.676553216915E+03    0.42705E+03   -0.55303E+03  4640   0.215E+02    0.845E+01
DAV:   9    -0.503401973469E+03    0.17315E+03   -0.12394E+03  5560   0.680E+01    0.706E+01
DAV:  10    -0.548332755460E+03   -0.44931E+02   -0.31448E+02  5160   0.328E+01    0.902E+01
DAV:  11    -0.503981260036E+03    0.44351E+02   -0.14062E+02  5264   0.280E+01    0.847E+01
DAV:  12    -0.486132885859E+03    0.17848E+02   -0.25754E+02  4736   0.433E+01    0.797E+01
DAV:  13    -0.468782983869E+03    0.17350E+02   -0.15587E+02  5192   0.332E+01    0.720E+01
DAV:  14    -0.464862260047E+03    0.39207E+01   -0.33845E+01  4568   0.134E+01    0.689E+01
DAV:  15    -0.465510644972E+03   -0.64838E+00   -0.32865E+00  4664   0.444E+00    0.662E+01
DAV:  16    -0.458599327292E+03    0.69113E+01   -0.59266E+00  5056   0.619E+00    0.600E+01
DAV:  17    -0.454258241827E+03    0.43411E+01   -0.73188E+00  4888   0.567E+00    0.491E+01
DAV:  18    -0.450766991123E+03    0.34913E+01   -0.84149E+00  4448   0.623E+00    0.348E+01
DAV:  19    -0.448488057241E+03    0.22789E+01   -0.53087E+00  4864   0.527E+00    0.290E+01
DAV:  20    -0.448363569655E+03    0.12449E+00   -0.11390E+00  4560   0.270E+00    0.277E+01
DAV:  21    -0.447697582256E+03    0.66599E+00   -0.10425E+00  4872   0.221E+00    0.249E+01
DAV:  22    -0.446992150220E+03    0.70543E+00   -0.17183E+00  4808   0.316E+00    0.181E+01
DAV:  23    -0.446452999670E+03    0.53915E+00   -0.10853E+00  4904   0.230E+00    0.116E+01
DAV:  24    -0.446266172392E+03    0.18683E+00   -0.15743E+00  5200   0.283E+00    0.760E+00
DAV:  25    -0.446213283606E+03    0.52889E-01   -0.57961E-01  4608   0.185E+00    0.444E+00
DAV:  26    -0.446225290240E+03   -0.12007E-01   -0.30543E-01  4744   0.126E+00    0.268E+00
DAV:  27    -0.446202574707E+03    0.22716E-01   -0.16521E-01  5104   0.938E-01    0.254E+00
DAV:  28    -0.446161012874E+03    0.41562E-01   -0.10196E-01  4744   0.675E-01    0.214E+00
DAV:  29    -0.446137211727E+03    0.23801E-01   -0.33540E-02  4856   0.434E-01    0.172E+00
DAV:  30    -0.446133861601E+03    0.33501E-02   -0.79148E-03  4216   0.235E-01    0.180E+00
DAV:  31    -0.446121905192E+03    0.11956E-01   -0.25318E-02  5200   0.376E-01    0.160E+00
DAV:  32    -0.446108495076E+03    0.13410E-01   -0.14275E-02  4888   0.230E-01    0.120E+00
DAV:  33    -0.446101447097E+03    0.70480E-02   -0.14802E-02  4776   0.276E-01    0.717E-01
DAV:  34    -0.446099058535E+03    0.23886E-02   -0.40967E-03  5096   0.147E-01    0.567E-01
DAV:  35    -0.446096892720E+03    0.21658E-02   -0.32566E-03  4384   0.996E-02    0.276E-01
DAV:  36    -0.446096308385E+03    0.58433E-03   -0.20310E-03  4992   0.810E-02    0.980E-02
DAV:  37    -0.446096339810E+03   -0.31425E-04   -0.70647E-04  4784   0.670E-02    0.123E-01
DAV:  38    -0.446096231950E+03    0.10786E-03   -0.22398E-04  4656   0.331E-02    0.659E-02
DAV:  39    -0.446096232101E+03   -0.15093E-06   -0.71137E-05  4456   0.212E-02    0.525E-02
DAV:  40    -0.446096219086E+03    0.13016E-04   -0.25180E-05  3416   0.120E-02    0.490E-02
DAV:  41    -0.446096203819E+03    0.15267E-04   -0.48661E-05  4208   0.128E-02    0.271E-02
DAV:  42    -0.446096206597E+03   -0.27787E-05   -0.10906E-05  2152   0.119E-02
   1 F= -.44609621E+03 E0= -.44601405E+03  d E =-.164309E+00
Distance=1.000
 running on   16 total cores
 distrk:  each k-point on    8 cores,    2 groups
 distr:  one band on    4 cores,    2 groups
 using from now: INCAR     
 vasp.5.4.4.18Apr17-6-g9f103f2a35 (build Nov 27 2019 20:08:17) complex          
  
 POSCAR found type information on POSCAR  Ti
 POSCAR found :  1 types and      54 ions
 scaLAPACK will be used

 ----------------------------------------------------------------------------- 
|                                                                             |
|           W    W    AA    RRRRR   N    N  II  N    N   GGGG   !!!           |
|           W    W   A  A   R    R  NN   N  II  NN   N  G    G  !!!           |
|           W    W  A    A  R    R  N N  N  II  N N  N  G       !!!           |
|           W WW W  AAAAAA  RRRRR   N  N N  II  N  N N  G  GGG   !            |
|           WW  WW  A    A  R   R   N   NN  II  N   NN  G    G                |
|           W    W  A    A  R    R  N    N  II  N    N   GGGG   !!!           |
|                                                                             |
|      You have enabled k-point parallelism (KPAR>1).                         |
|      This developmental code was originally  written by Paul Kent at ORNL,  |
|      and carefully double checked in Vienna.                                |
|      GW as well as linear response parallelism added by Martijn Marsman     |
|      and Georg Kresse.                                                      |
|      Carefully verify results versus KPAR=1.                                |
|      Report problems to Paul Kent and Vienna.                               |
|                                                                             |
 ----------------------------------------------------------------------------- 

 LDA part: xc-table for Pade appr. of Perdew
 POSCAR found type information on POSCAR  Ti
 POSCAR found :  1 types and      54 ions
 POSCAR, INCAR and KPOINTS ok, starting setup
 FFT: planning ...
 WAVECAR not read
 entering main loop
       N       E                     dE             d eps       ncg     rms          rms(c)
DAV:   1     0.976937287133E+03    0.97694E+03   -0.61979E+04  1904   0.117E+03
DAV:   2    -0.280893459120E+03   -0.12578E+04   -0.12199E+04  1904   0.259E+02
DAV:   3    -0.469091384337E+03   -0.18820E+03   -0.17901E+03  2984   0.893E+01
DAV:   4    -0.485261921244E+03   -0.16171E+02   -0.15374E+02  3048   0.271E+01
DAV:   5    -0.486223940710E+03   -0.96202E+00   -0.91571E+00  3064   0.519E+00    0.858E+01
DAV:   6    -0.938978793156E+03   -0.45275E+03   -0.54928E+03  3752   0.109E+02    0.128E+02
DAV:   7    -0.425920371902E+03    0.51306E+03   -0.67894E+03  3432   0.155E+02    0.463E+01
DAV:   8    -0.407509506920E+03    0.18411E+02   -0.10176E+03  3088   0.885E+01    0.316E+01
DAV:   9    -0.415271706432E+03   -0.77622E+01   -0.18035E+02  3152   0.260E+01    0.287E+01
DAV:  10    -0.417870699224E+03   -0.25990E+01   -0.15950E+01  3160   0.709E+00    0.310E+01
DAV:  11    -0.417411150354E+03    0.45955E+00   -0.13431E+00  3104   0.156E+00    0.306E+01
DAV:  12    -0.411902180237E+03    0.55090E+01   -0.40774E+00  2720   0.629E+00    0.249E+01
DAV:  13    -0.401168820908E+03    0.10733E+02   -0.24951E+01  2480   0.159E+01    0.106E+01
DAV:  14    -0.400905903816E+03    0.26292E+00   -0.34788E+00  2928   0.516E+00    0.884E+00
DAV:  15    -0.400969321134E+03   -0.63417E-01   -0.16654E-01  2936   0.942E-01    0.841E+00
DAV:  16    -0.400546124375E+03    0.42320E+00   -0.12015E+00  2848   0.277E+00    0.299E+00
DAV:  17    -0.400362635797E+03    0.18349E+00   -0.83974E-01  3144   0.189E+00    0.216E+00
DAV:  18    -0.400297068893E+03    0.65567E-01   -0.16954E-01  2848   0.972E-01    0.150E+00
DAV:  19    -0.400255948265E+03    0.41121E-01   -0.87319E-02  2408   0.876E-01    0.107E+00
DAV:  20    -0.400246029188E+03    0.99191E-02   -0.57413E-02  3208   0.498E-01    0.102E+00
DAV:  21    -0.400243569514E+03    0.24597E-02   -0.37676E-02  2640   0.477E-01    0.516E-01
DAV:  22    -0.400240107269E+03    0.34622E-02   -0.13161E-02  3120   0.257E-01    0.318E-01
DAV:  23    -0.400240401028E+03   -0.29376E-03   -0.83096E-03  3040   0.155E-01    0.136E-01
DAV:  24    -0.400240676100E+03   -0.27507E-03   -0.24251E-03  3088   0.112E-01    0.725E-02
DAV:  25    -0.400240678862E+03   -0.27617E-05   -0.31904E-04  2480   0.523E-02    0.310E-02
DAV:  26    -0.400240681243E+03   -0.23816E-05   -0.94817E-05  2872   0.248E-02    0.287E-02
DAV:  27    -0.400240681689E+03   -0.44553E-06   -0.41966E-05  2368   0.198E-02
   1 F= -.40024068E+03 E0= -.40018623E+03  d E =-.108907E+00
 running on   16 total cores
 distrk:  each k-point on    8 cores,    2 groups
 distr:  one band on    4 cores,    2 groups
 using from now: INCAR     
 vasp.5.4.4.18Apr17-6-g9f103f2a35 (build Nov 27 2019 20:08:17) complex          
  
 POSCAR found type information on POSCAR  Ti
 POSCAR found :  1 types and      36 ions
 scaLAPACK will be used

 ----------------------------------------------------------------------------- 
|                                                                             |
|           W    W    AA    RRRRR   N    N  II  N    N   GGGG   !!!           |
|           W    W   A  A   R    R  NN   N  II  NN   N  G    G  !!!           |
|           W    W  A    A  R    R  N N  N  II  N N  N  G       !!!           |
|           W WW W  AAAAAA  RRRRR   N  N N  II  N  N N  G  GGG   !            |
|           WW  WW  A    A  R   R   N   NN  II  N   NN  G    G                |
|           W    W  A    A  R    R  N    N  II  N    N   GGGG   !!!           |
|                                                                             |
|      You have enabled k-point parallelism (KPAR>1).                         |
|      This developmental code was originally  written by Paul Kent at ORNL,  |
|      and carefully double checked in Vienna.                                |
|      GW as well as linear response parallelism added by Martijn Marsman     |
|      and Georg Kresse.                                                      |
|      Carefully verify results versus KPAR=1.                                |
|      Report problems to Paul Kent and Vienna.                               |
|                                                                             |
 ----------------------------------------------------------------------------- 

 LDA part: xc-table for Pade appr. of Perdew
 POSCAR found type information on POSCAR  Ti
 POSCAR found :  1 types and      36 ions
 POSCAR, INCAR and KPOINTS ok, starting setup
 FFT: planning ...
 WAVECAR not read
 WARNING: random wavefunctions but no delay for mixing, default for NELMDL
 entering main loop
       N       E                     dE             d eps       ncg     rms          rms(c)
DAV:   1     0.725669559863E+03    0.72567E+03   -0.40886E+04  1288   0.108E+03
DAV:   2    -0.186225158180E+03   -0.91189E+03   -0.87486E+03  1288   0.245E+02
DAV:   3    -0.320576441457E+03   -0.13435E+03   -0.12614E+03  1984   0.868E+01
DAV:   4    -0.330638765149E+03   -0.10062E+02   -0.93578E+01  1920   0.279E+01
DAV:   5    -0.331137717065E+03   -0.49895E+00   -0.48539E+00  2032   0.557E+00    0.782E+01
DAV:   6    -0.502241487753E+03   -0.17110E+03   -0.29056E+03  2424   0.991E+01    0.997E+01
DAV:   7    -0.283682717394E+03    0.21856E+03   -0.38283E+03  2228   0.174E+02    0.335E+01
DAV:   8    -0.285768688127E+03   -0.20860E+01   -0.57562E+02  1884   0.775E+01    0.390E+01
DAV:   9    -0.268021735927E+03    0.17747E+02   -0.98275E+01  2016   0.327E+01    0.286E+01
DAV:  10    -0.265803107862E+03    0.22186E+01   -0.73016E+00  2072   0.718E+00    0.263E+01
DAV:  11    -0.264337630668E+03    0.14655E+01   -0.12598E+00  2144   0.309E+00    0.240E+01
DAV:  12    -0.261716289763E+03    0.26213E+01   -0.74444E+00  1968   0.825E+00    0.199E+01
DAV:  13    -0.256312745357E+03    0.54035E+01   -0.25843E+01  2120   0.142E+01    0.665E+00
DAV:  14    -0.256036962075E+03    0.27578E+00   -0.27063E+00  2088   0.420E+00    0.433E+00
DAV:  15    -0.256212321922E+03   -0.17536E+00   -0.97287E-01  2032   0.275E+00    0.515E+00
DAV:  16    -0.255919993590E+03    0.29233E+00   -0.23496E+00  2104   0.379E+00    0.297E+00
DAV:  17    -0.255798552026E+03    0.12144E+00   -0.70600E-01  2040   0.270E+00    0.106E+00
DAV:  18    -0.255799602461E+03   -0.10504E-02   -0.15111E-01  1888   0.116E+00    0.992E-01
DAV:  19    -0.255806416162E+03   -0.68137E-02   -0.21089E-01  1968   0.144E+00    0.101E+00
DAV:  20    -0.255807707308E+03   -0.12911E-02   -0.23664E-01  2000   0.128E+00    0.101E+00
DAV:  21    -0.255794490559E+03    0.13217E-01   -0.10371E-01  1960   0.926E-01    0.361E-01
DAV:  22    -0.255793787857E+03    0.70270E-03   -0.57631E-03  1960   0.189E-01    0.232E-01
DAV:  23    -0.255795210320E+03   -0.14225E-02   -0.11266E-02  2016   0.301E-01    0.258E-01
DAV:  24    -0.255795345918E+03   -0.13560E-03   -0.38359E-03  1968   0.170E-01    0.473E-02
DAV:  25    -0.255796283446E+03   -0.93753E-03   -0.13538E-03  2176   0.797E-02    0.116E-01
DAV:  26    -0.255796869633E+03   -0.58619E-03   -0.65584E-04  2000   0.705E-02    0.417E-02
DAV:  27    -0.255797196453E+03   -0.32682E-03   -0.18420E-04  2040   0.347E-02    0.928E-03
DAV:  28    -0.255797337177E+03   -0.14072E-03   -0.40512E-05  1744   0.158E-02    0.185E-02
DAV:  29    -0.255797374076E+03   -0.36899E-04   -0.88193E-06  1040   0.112E-02    0.120E-02
DAV:  30    -0.255797378412E+03   -0.43365E-05   -0.39795E-06   896   0.635E-03
   1 F= -.25579738E+03 E0= -.25572859E+03  d E =-.137576E+00
 running on   16 total cores
 distrk:  each k-point on    8 cores,    2 groups
 distr:  one band on    4 cores,    2 groups
 using from now: INCAR     
 vasp.5.4.4.18Apr17-6-g9f103f2a35 (build Nov 27 2019 20:08:17) complex          
  
 POSCAR found type information on POSCAR  Ti
 POSCAR found :  1 types and      90 ions
 scaLAPACK will be used

 ----------------------------------------------------------------------------- 
|                                                                             |
|           W    W    AA    RRRRR   N    N  II  N    N   GGGG   !!!           |
|           W    W   A  A   R    R  NN   N  II  NN   N  G    G  !!!           |
|           W    W  A    A  R    R  N N  N  II  N N  N  G       !!!           |
|           W WW W  AAAAAA  RRRRR   N  N N  II  N  N N  G  GGG   !            |
|           WW  WW  A    A  R   R   N   NN  II  N   NN  G    G                |
|           W    W  A    A  R    R  N    N  II  N    N   GGGG   !!!           |
|                                                                             |
|      You have enabled k-point parallelism (KPAR>1).                         |
|      This developmental code was originally  written by Paul Kent at ORNL,  |
|      and carefully double checked in Vienna.                                |
|      GW as well as linear response parallelism added by Martijn Marsman     |
|      and Georg Kresse.                                                      |
|      Carefully verify results versus KPAR=1.                                |
|      Report problems to Paul Kent and Vienna.                               |
|                                                                             |
 ----------------------------------------------------------------------------- 

 LDA part: xc-table for Pade appr. of Perdew
 POSCAR found type information on POSCAR  Ti
 POSCAR found :  1 types and      90 ions

 ----------------------------------------------------------------------------- 
|                                                                             |
|           W    W    AA    RRRRR   N    N  II  N    N   GGGG   !!!           |
|           W    W   A  A   R    R  NN   N  II  NN   N  G    G  !!!           |
|           W    W  A    A  R    R  N N  N  II  N N  N  G       !!!           |
|           W WW W  AAAAAA  RRRRR   N  N N  II  N  N N  G  GGG   !            |
|           WW  WW  A    A  R   R   N   NN  II  N   NN  G    G                |
|           W    W  A    A  R    R  N    N  II  N    N   GGGG   !!!           |
|                                                                             |
|      The distance between some ions is very small                           |
|      please check the nearest neigbor list in the OUTCAR file               |
|          I HOPE YOU KNOW, WHAT YOU ARE  DOING                               |
|                                                                             |
 ----------------------------------------------------------------------------- 

 POSCAR, INCAR and KPOINTS ok, starting setup
 FFT: planning ...
 WAVECAR not read
 WARNING: random wavefunctions but no delay for mixing, default for NELMDL
 entering main loop
       N       E                     dE             d eps       ncg     rms          rms(c)
DAV:   1     0.167538347241E+04    0.16754E+04   -0.10510E+05  3164   0.126E+03
DAV:   2    -0.477069037982E+03   -0.21525E+04   -0.20928E+04  3164   0.289E+02
DAV:   3    -0.779190045232E+03   -0.30212E+03   -0.28367E+03  4472   0.107E+02
DAV:   4    -0.802803882044E+03   -0.23614E+02   -0.22095E+02  4544   0.294E+01
DAV:   5    -0.803910361075E+03   -0.11065E+01   -0.10661E+01  4608   0.486E+00    0.129E+02
DAV:   6    -0.345046632592E+04   -0.26466E+04   -0.31952E+04  6310   0.338E+02    0.232E+02
DAV:   7    -0.924849604576E+03    0.25256E+04   -0.19210E+04  5636   0.220E+02    0.953E+01
DAV:   8    -0.647203869224E+03    0.27765E+03   -0.43667E+03  5040   0.169E+02    0.598E+01
DAV:   9    -0.661701842112E+03   -0.14498E+02   -0.10887E+03  5280   0.616E+01    0.560E+01
DAV:  10    -0.649274621507E+03    0.12427E+02   -0.29270E+02  5144   0.350E+01    0.451E+01
DAV:  11    -0.632720121722E+03    0.16554E+02   -0.24068E+02  5000   0.389E+01    0.319E+01
DAV:  12    -0.620627482357E+03    0.12093E+02   -0.97278E+01  4976   0.264E+01    0.190E+01
DAV:  13    -0.619957279379E+03    0.67020E+00   -0.10140E+01  4584   0.780E+00    0.153E+01
DAV:  14    -0.620713010306E+03   -0.75573E+00   -0.11200E+01  4768   0.725E+00    0.147E+01
DAV:  15    -0.620470927938E+03    0.24208E+00   -0.23569E+01  4720   0.103E+01    0.126E+01
DAV:  16    -0.619322498317E+03    0.11484E+01   -0.84493E+00  4888   0.628E+00    0.908E+00
DAV:  17    -0.618519590820E+03    0.80291E+00   -0.33943E+00  4768   0.425E+00    0.578E+00
DAV:  18    -0.618446430208E+03    0.73161E-01   -0.12499E+00  4808   0.251E+00    0.494E+00
DAV:  19    -0.618370124811E+03    0.76305E-01   -0.82230E-01  4784   0.193E+00    0.398E+00
DAV:  20    -0.618246038812E+03    0.12409E+00   -0.26061E-01  4960   0.121E+00    0.256E+00
DAV:  21    -0.618198560514E+03    0.47478E-01   -0.25445E-01  4960   0.110E+00    0.189E+00
DAV:  22    -0.618175791549E+03    0.22769E-01   -0.15058E-01  4712   0.836E-01    0.147E+00
DAV:  23    -0.618168894760E+03    0.68968E-02   -0.33495E-02  4984   0.393E-01    0.120E+00
DAV:  24    -0.618161312227E+03    0.75825E-02   -0.32207E-02  4912   0.409E-01    0.684E-01
DAV:  25    -0.618158222402E+03    0.30898E-02   -0.19581E-02  4960   0.328E-01    0.478E-01
DAV:  26    -0.618156212113E+03    0.20103E-02   -0.17641E-02  4704   0.348E-01    0.257E-01
DAV:  27    -0.618156022499E+03    0.18961E-03   -0.44420E-03  4800   0.148E-01    0.223E-01
DAV:  28    -0.618155802535E+03    0.21996E-03   -0.24108E-03  4768   0.111E-01    0.909E-02
DAV:  29    -0.618155735990E+03    0.66545E-04   -0.54868E-04  5120   0.595E-02    0.690E-02
DAV:  30    -0.618155712716E+03    0.23274E-04   -0.25119E-04  5032   0.394E-02    0.228E-02
DAV:  31    -0.618155704426E+03    0.82899E-05   -0.58250E-05  4320   0.180E-02    0.122E-02
DAV:  32    -0.618155700946E+03    0.34804E-05   -0.17215E-05  2824   0.104E-02
   1 F= -.61815570E+03 E0= -.61807365E+03  d E =-.164111E+00
Distance=1.500
 running on   16 total cores
 distrk:  each k-point on    8 cores,    2 groups
 distr:  one band on    4 cores,    2 groups
 using from now: INCAR     
 vasp.5.4.4.18Apr17-6-g9f103f2a35 (build Nov 27 2019 20:08:17) complex          
  
 POSCAR found type information on POSCAR  Ti
 POSCAR found :  1 types and      54 ions
 scaLAPACK will be used

 ----------------------------------------------------------------------------- 
|                                                                             |
|           W    W    AA    RRRRR   N    N  II  N    N   GGGG   !!!           |
|           W    W   A  A   R    R  NN   N  II  NN   N  G    G  !!!           |
|           W    W  A    A  R    R  N N  N  II  N N  N  G       !!!           |
|           W WW W  AAAAAA  RRRRR   N  N N  II  N  N N  G  GGG   !            |
|           WW  WW  A    A  R   R   N   NN  II  N   NN  G    G                |
|           W    W  A    A  R    R  N    N  II  N    N   GGGG   !!!           |
|                                                                             |
|      You have enabled k-point parallelism (KPAR>1).                         |
|      This developmental code was originally  written by Paul Kent at ORNL,  |
|      and carefully double checked in Vienna.                                |
|      GW as well as linear response parallelism added by Martijn Marsman     |
|      and Georg Kresse.                                                      |
|      Carefully verify results versus KPAR=1.                                |
|      Report problems to Paul Kent and Vienna.                               |
|                                                                             |
 ----------------------------------------------------------------------------- 

 LDA part: xc-table for Pade appr. of Perdew
 POSCAR found type information on POSCAR  Ti
 POSCAR found :  1 types and      54 ions
 POSCAR, INCAR and KPOINTS ok, starting setup
 FFT: planning ...
 WAVECAR not read
 entering main loop
       N       E                     dE             d eps       ncg     rms          rms(c)
DAV:   1     0.992783073910E+03    0.99278E+03   -0.62061E+04  1904   0.116E+03
DAV:   2    -0.280277557747E+03   -0.12731E+04   -0.12344E+04  1904   0.257E+02
DAV:   3    -0.468448370094E+03   -0.18817E+03   -0.17881E+03  2976   0.885E+01
DAV:   4    -0.485163699254E+03   -0.16715E+02   -0.15880E+02  3088   0.274E+01
DAV:   5    -0.486217362675E+03   -0.10537E+01   -0.99610E+00  3040   0.536E+00    0.858E+01
DAV:   6    -0.924167744776E+03   -0.43795E+03   -0.53479E+03  3776   0.108E+02    0.128E+02
DAV:   7    -0.433283771569E+03    0.49088E+03   -0.69544E+03  3432   0.157E+02    0.476E+01
DAV:   8    -0.407250939783E+03    0.26033E+02   -0.10292E+03  3096   0.900E+01    0.320E+01
DAV:   9    -0.415457429247E+03   -0.82065E+01   -0.18887E+02  3176   0.264E+01    0.289E+01
DAV:  10    -0.417706326656E+03   -0.22489E+01   -0.16935E+01  3160   0.736E+00    0.309E+01
DAV:  11    -0.417369068026E+03    0.33726E+00   -0.15473E+00  3120   0.165E+00    0.305E+01
DAV:  12    -0.414532827963E+03    0.28362E+01   -0.31556E+00  3048   0.501E+00    0.278E+01
DAV:  13    -0.405141657818E+03    0.93912E+01   -0.10875E+01  2392   0.107E+01    0.198E+01
DAV:  14    -0.402608434320E+03    0.25332E+01   -0.12830E+01  2944   0.995E+00    0.146E+01
DAV:  15    -0.402439139258E+03    0.16930E+00   -0.45027E-01  2912   0.159E+00    0.141E+01
DAV:  16    -0.401996239006E+03    0.44290E+00   -0.22918E-01  2776   0.129E+00    0.118E+01
DAV:  17    -0.400477817465E+03    0.15184E+01   -0.45878E+00  3088   0.434E+00    0.321E+00
DAV:  18    -0.400530173790E+03   -0.52356E-01   -0.39220E-01  2832   0.155E+00    0.300E+00
DAV:  19    -0.400507570186E+03    0.22604E-01   -0.36009E-02  3096   0.379E-01    0.278E+00
DAV:  20    -0.400485429057E+03    0.22141E-01   -0.38878E-01  2976   0.113E+00    0.334E+00
DAV:  21    -0.400299415954E+03    0.18601E+00   -0.26566E-01  2920   0.131E+00    0.252E+00
DAV:  22    -0.400259696442E+03    0.39720E-01   -0.79754E-02  3152   0.579E-01    0.188E+00
DAV:  23    -0.400243201911E+03    0.16495E-01   -0.16836E-01  3072   0.770E-01    0.918E-01
DAV:  24    -0.400264679671E+03   -0.21478E-01   -0.64684E-02  2936   0.508E-01    0.126E+00
DAV:  25    -0.400250933223E+03    0.13746E-01   -0.31817E-02  2824   0.459E-01    0.106E+00
DAV:  26    -0.400255777753E+03   -0.48445E-02   -0.58399E-03  3056   0.194E-01    0.117E+00
DAV:  27    -0.400249703163E+03    0.60746E-02   -0.34252E-03  2888   0.106E-01    0.951E-01
DAV:  28    -0.400243816455E+03    0.58867E-02   -0.62233E-03  3024   0.121E-01    0.586E-01
DAV:  29    -0.400240139153E+03    0.36773E-02   -0.73230E-03  3072   0.145E-01    0.275E-01
DAV:  30    -0.400239608217E+03    0.53094E-03   -0.22034E-03  3072   0.815E-02    0.133E-01
DAV:  31    -0.400239590957E+03    0.17260E-04   -0.32002E-04  3152   0.319E-02    0.898E-02
DAV:  32    -0.400239607754E+03   -0.16797E-04   -0.83824E-05  3096   0.170E-02    0.709E-02
DAV:  33    -0.400239622494E+03   -0.14740E-04   -0.35941E-05  2392   0.170E-02    0.546E-02
DAV:  34    -0.400239600289E+03    0.22205E-04   -0.12653E-05  1712   0.693E-03    0.434E-02
DAV:  35    -0.400239578151E+03    0.22138E-04   -0.69436E-05  2616   0.112E-02    0.124E-02
DAV:  36    -0.400239576947E+03    0.12038E-05   -0.82591E-06  1424   0.694E-03
   1 F= -.40023958E+03 E0= -.40018506E+03  d E =-.109027E+00
 running on   16 total cores
 distrk:  each k-point on    8 cores,    2 groups
 distr:  one band on    4 cores,    2 groups
 using from now: INCAR     
 vasp.5.4.4.18Apr17-6-g9f103f2a35 (build Nov 27 2019 20:08:17) complex          
  
 POSCAR found type information on POSCAR  Ti
 POSCAR found :  1 types and      36 ions
 scaLAPACK will be used

 ----------------------------------------------------------------------------- 
|                                                                             |
|           W    W    AA    RRRRR   N    N  II  N    N   GGGG   !!!           |
|           W    W   A  A   R    R  NN   N  II  NN   N  G    G  !!!           |
|           W    W  A    A  R    R  N N  N  II  N N  N  G       !!!           |
|           W WW W  AAAAAA  RRRRR   N  N N  II  N  N N  G  GGG   !            |
|           WW  WW  A    A  R   R   N   NN  II  N   NN  G    G                |
|           W    W  A    A  R    R  N    N  II  N    N   GGGG   !!!           |
|                                                                             |
|      You have enabled k-point parallelism (KPAR>1).                         |
|      This developmental code was originally  written by Paul Kent at ORNL,  |
|      and carefully double checked in Vienna.                                |
|      GW as well as linear response parallelism added by Martijn Marsman     |
|      and Georg Kresse.                                                      |
|      Carefully verify results versus KPAR=1.                                |
|      Report problems to Paul Kent and Vienna.                               |
|                                                                             |
 ----------------------------------------------------------------------------- 

 LDA part: xc-table for Pade appr. of Perdew
 POSCAR found type information on POSCAR  Ti
 POSCAR found :  1 types and      36 ions
 POSCAR, INCAR and KPOINTS ok, starting setup
 FFT: planning ...
 WAVECAR not read
 WARNING: random wavefunctions but no delay for mixing, default for NELMDL
 entering main loop
       N       E                     dE             d eps       ncg     rms          rms(c)
DAV:   1     0.726686808532E+03    0.72669E+03   -0.40631E+04  1288   0.107E+03
DAV:   2    -0.186895414886E+03   -0.91358E+03   -0.87831E+03  1288   0.243E+02
DAV:   3    -0.320372095506E+03   -0.13348E+03   -0.12476E+03  1960   0.861E+01
DAV:   4    -0.330636385725E+03   -0.10264E+02   -0.96044E+01  1920   0.279E+01
DAV:   5    -0.331138433414E+03   -0.50205E+00   -0.49215E+00  2024   0.567E+00    0.782E+01
DAV:   6    -0.499056242377E+03   -0.16792E+03   -0.28753E+03  2436   0.986E+01    0.996E+01
DAV:   7    -0.286297598258E+03    0.21276E+03   -0.38997E+03  2244   0.176E+02    0.341E+01
DAV:   8    -0.284611563665E+03    0.16860E+01   -0.56669E+02  1900   0.777E+01    0.382E+01
DAV:   9    -0.268471290079E+03    0.16140E+02   -0.85301E+01  2008   0.300E+01    0.289E+01
DAV:  10    -0.266869688046E+03    0.16016E+01   -0.61438E+00  2088   0.657E+00    0.273E+01
DAV:  11    -0.265963089303E+03    0.90660E+00   -0.73996E-01  2124   0.205E+00    0.260E+01
DAV:  12    -0.261903485359E+03    0.40596E+01   -0.10951E+01  1932   0.101E+01    0.200E+01
DAV:  13    -0.256320323346E+03    0.55832E+01   -0.27641E+01  2136   0.141E+01    0.725E+00
DAV:  14    -0.256071036839E+03    0.24929E+00   -0.24680E+00  2024   0.437E+00    0.511E+00
DAV:  15    -0.256264802043E+03   -0.19377E+00   -0.13050E+00  2008   0.292E+00    0.577E+00
DAV:  16    -0.255973987938E+03    0.29081E+00   -0.33069E+00  2096   0.451E+00    0.360E+00
DAV:  17    -0.255805937497E+03    0.16805E+00   -0.57802E-01  2020   0.240E+00    0.161E+00
DAV:  18    -0.255791199245E+03    0.14738E-01   -0.38308E-01  2072   0.187E+00    0.100E+00
DAV:  19    -0.255826387798E+03   -0.35189E-01   -0.43735E-01  1992   0.178E+00    0.174E+00
DAV:  20    -0.255809517185E+03    0.16871E-01   -0.85304E-02  2128   0.887E-01    0.102E+00
DAV:  21    -0.255794633905E+03    0.14883E-01   -0.95262E-02  1968   0.931E-01    0.177E-01
DAV:  22    -0.255795673121E+03   -0.10392E-02   -0.78315E-03  1928   0.229E-01    0.226E-01
DAV:  23    -0.255795434102E+03    0.23902E-03   -0.19607E-03  1920   0.114E-01    0.111E-01
DAV:  24    -0.255795814867E+03   -0.38076E-03   -0.24716E-03  2128   0.140E-01    0.105E-01
DAV:  25    -0.255796100637E+03   -0.28577E-03   -0.12288E-03  2104   0.941E-02    0.420E-02
DAV:  26    -0.255796412703E+03   -0.31207E-03   -0.11595E-04  1712   0.322E-02    0.283E-02
DAV:  27    -0.255796721596E+03   -0.30889E-03   -0.53735E-05  1848   0.144E-02    0.180E-02
DAV:  28    -0.255796916887E+03   -0.19529E-03   -0.11219E-04  1968   0.246E-02    0.285E-02
DAV:  29    -0.255796972828E+03   -0.55941E-04   -0.82167E-05  1768   0.263E-02    0.958E-03
DAV:  30    -0.255796991625E+03   -0.18797E-04   -0.91118E-06  1032   0.967E-03    0.322E-03
DAV:  31    -0.255796995887E+03   -0.42621E-05   -0.35219E-06   896   0.498E-03
   1 F= -.25579700E+03 E0= -.25572821E+03  d E =-.137565E+00
 running on   16 total cores
 distrk:  each k-point on    8 cores,    2 groups
 distr:  one band on    4 cores,    2 groups
 using from now: INCAR     
 vasp.5.4.4.18Apr17-6-g9f103f2a35 (build Nov 27 2019 20:08:17) complex          
  
 POSCAR found type information on POSCAR  Ti
 POSCAR found :  1 types and      90 ions
 scaLAPACK will be used

 ----------------------------------------------------------------------------- 
|                                                                             |
|           W    W    AA    RRRRR   N    N  II  N    N   GGGG   !!!           |
|           W    W   A  A   R    R  NN   N  II  NN   N  G    G  !!!           |
|           W    W  A    A  R    R  N N  N  II  N N  N  G       !!!           |
|           W WW W  AAAAAA  RRRRR   N  N N  II  N  N N  G  GGG   !            |
|           WW  WW  A    A  R   R   N   NN  II  N   NN  G    G                |
|           W    W  A    A  R    R  N    N  II  N    N   GGGG   !!!           |
|                                                                             |
|      You have enabled k-point parallelism (KPAR>1).                         |
|      This developmental code was originally  written by Paul Kent at ORNL,  |
|      and carefully double checked in Vienna.                                |
|      GW as well as linear response parallelism added by Martijn Marsman     |
|      and Georg Kresse.                                                      |
|      Carefully verify results versus KPAR=1.                                |
|      Report problems to Paul Kent and Vienna.                               |
|                                                                             |
 ----------------------------------------------------------------------------- 

 LDA part: xc-table for Pade appr. of Perdew
 POSCAR found type information on POSCAR  Ti
 POSCAR found :  1 types and      90 ions
 POSCAR, INCAR and KPOINTS ok, starting setup
 FFT: planning ...
 WAVECAR not read
 WARNING: random wavefunctions but no delay for mixing, default for NELMDL
 entering main loop
       N       E                     dE             d eps       ncg     rms          rms(c)
DAV:   1     0.158110161998E+04    0.15811E+04   -0.10361E+05  3164   0.125E+03
DAV:   2    -0.464824848757E+03   -0.20459E+04   -0.19879E+04  3164   0.280E+02
DAV:   3    -0.767798266141E+03   -0.30297E+03   -0.28324E+03  4632   0.987E+01
DAV:   4    -0.792068210881E+03   -0.24270E+02   -0.22855E+02  4584   0.295E+01
DAV:   5    -0.793041709081E+03   -0.97350E+00   -0.94680E+00  4488   0.469E+00    0.120E+02
DAV:   6    -0.220676713187E+04   -0.14137E+04   -0.13997E+04  6238   0.195E+02    0.170E+02
DAV:   7    -0.993604320310E+03    0.12132E+04   -0.18773E+04  5820   0.185E+02    0.995E+01
DAV:   8    -0.700060260415E+03    0.29354E+03   -0.37632E+03  4842   0.155E+02    0.643E+01
DAV:   9    -0.718410953259E+03   -0.18351E+02   -0.13432E+03  5416   0.766E+01    0.548E+01
DAV:  10    -0.704988703567E+03    0.13422E+02   -0.27047E+02  5104   0.321E+01    0.436E+01
DAV:  11    -0.701170889660E+03    0.38178E+01   -0.22971E+01  4952   0.987E+00    0.415E+01
DAV:  12    -0.702815995905E+03   -0.16451E+01   -0.20260E+00  5112   0.252E+00    0.433E+01
DAV:  13    -0.698087508381E+03    0.47285E+01   -0.27999E+00  4904   0.356E+00    0.385E+01
DAV:  14    -0.684007888421E+03    0.14080E+02   -0.22664E+01  4104   0.121E+01    0.222E+01
DAV:  15    -0.680000375644E+03    0.40075E+01   -0.12597E+01  4784   0.870E+00    0.162E+01
DAV:  16    -0.679273721085E+03    0.72665E+00   -0.22221E+00  4848   0.339E+00    0.148E+01
DAV:  17    -0.678965199878E+03    0.30852E+00   -0.24315E-01  4592   0.999E-01    0.141E+01
DAV:  18    -0.677995027527E+03    0.97017E+00   -0.17136E+00  4688   0.287E+00    0.105E+01
DAV:  19    -0.676837489433E+03    0.11575E+01   -0.40983E+00  4720   0.439E+00    0.597E+00
DAV:  20    -0.676046002680E+03    0.79149E+00   -0.42187E+00  4512   0.491E+00    0.364E+00
DAV:  21    -0.675928940310E+03    0.11706E+00   -0.10635E+00  4656   0.240E+00    0.296E+00
DAV:  22    -0.675925332275E+03    0.36080E-02   -0.12075E-01  4624   0.785E-01    0.266E+00
DAV:  23    -0.675916784636E+03    0.85476E-02   -0.55000E-02  4824   0.521E-01    0.208E+00
DAV:  24    -0.675899536900E+03    0.17248E-01   -0.88858E-02  4776   0.716E-01    0.116E+00
DAV:  25    -0.675897282881E+03    0.22540E-02   -0.60434E-02  4792   0.522E-01    0.107E+00
DAV:  26    -0.675893337832E+03    0.39450E-02   -0.21690E-02  4744   0.339E-01    0.662E-01
DAV:  27    -0.675890839824E+03    0.24980E-02   -0.11556E-02  4272   0.257E-01    0.282E-01
DAV:  28    -0.675891084779E+03   -0.24495E-03   -0.56383E-03  4280   0.189E-01    0.197E-01
DAV:  29    -0.675890703090E+03    0.38169E-03   -0.61113E-03  4112   0.185E-01    0.182E-01
DAV:  30    -0.675890577436E+03    0.12565E-03   -0.94018E-04  4744   0.831E-02    0.130E-01
DAV:  31    -0.675890478315E+03    0.99121E-04   -0.21649E-04  4536   0.333E-02    0.864E-02
DAV:  32    -0.675890497723E+03   -0.19409E-04   -0.15188E-04  4840   0.318E-02    0.660E-02
DAV:  33    -0.675890484176E+03    0.13547E-04   -0.47894E-05  4120   0.139E-02    0.611E-02
DAV:  34    -0.675890432938E+03    0.51237E-04   -0.10080E-04  4072   0.252E-02    0.235E-02
DAV:  35    -0.675890427753E+03    0.51858E-05   -0.34470E-05  3576   0.145E-02    0.992E-03
DAV:  36    -0.675890427773E+03   -0.20285E-07   -0.28821E-06  1960   0.359E-03
   1 F= -.67589043E+03 E0= -.67579772E+03  d E =-.185413E+00
Distance=2.000
 running on   16 total cores
 distrk:  each k-point on    8 cores,    2 groups
 distr:  one band on    4 cores,    2 groups
 using from now: INCAR     
 vasp.5.4.4.18Apr17-6-g9f103f2a35 (build Nov 27 2019 20:08:17) complex          
  
 POSCAR found type information on POSCAR  Ti
 POSCAR found :  1 types and      54 ions
 scaLAPACK will be used

 ----------------------------------------------------------------------------- 
|                                                                             |
|           W    W    AA    RRRRR   N    N  II  N    N   GGGG   !!!           |
|           W    W   A  A   R    R  NN   N  II  NN   N  G    G  !!!           |
|           W    W  A    A  R    R  N N  N  II  N N  N  G       !!!           |
|           W WW W  AAAAAA  RRRRR   N  N N  II  N  N N  G  GGG   !            |
|           WW  WW  A    A  R   R   N   NN  II  N   NN  G    G                |
|           W    W  A    A  R    R  N    N  II  N    N   GGGG   !!!           |
|                                                                             |
|      You have enabled k-point parallelism (KPAR>1).                         |
|      This developmental code was originally  written by Paul Kent at ORNL,  |
|      and carefully double checked in Vienna.                                |
|      GW as well as linear response parallelism added by Martijn Marsman     |
|      and Georg Kresse.                                                      |
|      Carefully verify results versus KPAR=1.                                |
|      Report problems to Paul Kent and Vienna.                               |
|                                                                             |
 ----------------------------------------------------------------------------- 

 LDA part: xc-table for Pade appr. of Perdew
 POSCAR found type information on POSCAR  Ti
 POSCAR found :  1 types and      54 ions
 POSCAR, INCAR and KPOINTS ok, starting setup
 FFT: planning ...
 WAVECAR not read
 entering main loop
       N       E                     dE             d eps       ncg     rms          rms(c)
DAV:   1     0.100552007134E+04    0.10055E+04   -0.62014E+04  1904   0.115E+03
DAV:   2    -0.278574158283E+03   -0.12841E+04   -0.12444E+04  1904   0.256E+02
DAV:   3    -0.467951168422E+03   -0.18938E+03   -0.18010E+03  2976   0.879E+01
DAV:   4    -0.485119926424E+03   -0.17169E+02   -0.16274E+02  3096   0.275E+01
DAV:   5    -0.486204243878E+03   -0.10843E+01   -0.10230E+01  3008   0.555E+00    0.858E+01
DAV:   6    -0.924608031619E+03   -0.43840E+03   -0.53532E+03  3760   0.108E+02    0.127E+02
DAV:   7    -0.444023879610E+03    0.48058E+03   -0.72049E+03  3416   0.159E+02    0.492E+01
DAV:   8    -0.408738062564E+03    0.35286E+02   -0.10619E+03  3112   0.937E+01    0.330E+01
DAV:   9    -0.415850848043E+03   -0.71128E+01   -0.20546E+02  3176   0.285E+01    0.295E+01
DAV:  10    -0.417692413273E+03   -0.18416E+01   -0.20549E+01  3192   0.813E+00    0.311E+01
DAV:  11    -0.417835673000E+03   -0.14326E+00   -0.16186E+00  3160   0.164E+00    0.312E+01
DAV:  12    -0.421017179498E+03   -0.31815E+01   -0.44417E+00  3024   0.517E+00    0.344E+01
DAV:  13    -0.415503387275E+03    0.55138E+01   -0.34434E+00  2832   0.532E+00    0.279E+01
DAV:  14    -0.410151180791E+03    0.53522E+01   -0.96515E+01  2704   0.268E+01    0.279E+01
DAV:  15    -0.408774617918E+03    0.13766E+01   -0.28685E+01  3120   0.143E+01    0.285E+01
DAV:  16    -0.410682923420E+03   -0.19083E+01   -0.27134E+00  2968   0.341E+00    0.290E+01
DAV:  17    -0.416445269150E+03   -0.57623E+01   -0.13091E+01  3016   0.696E+00    0.297E+01
DAV:  18    -0.417792247049E+03   -0.13470E+01   -0.15045E+00  2744   0.319E+00    0.293E+01
DAV:  19    -0.414581997356E+03    0.32102E+01   -0.20780E+00  2904   0.352E+00    0.262E+01
DAV:  20    -0.409313485438E+03    0.52685E+01   -0.27877E+00  3040   0.273E+00    0.199E+01
DAV:  21    -0.410184455150E+03   -0.87097E+00   -0.35625E-01  2720   0.148E+00    0.207E+01
DAV:  22    -0.407048893938E+03    0.31356E+01   -0.10617E+00  2888   0.155E+00    0.175E+01
DAV:  23    -0.403937762191E+03    0.31111E+01   -0.19262E+00  2936   0.182E+00    0.134E+01
DAV:  24    -0.402294573483E+03    0.16432E+01   -0.11673E+00  2952   0.136E+00    0.108E+01
DAV:  25    -0.400429599422E+03    0.18650E+01   -0.43286E+00  2904   0.241E+00    0.431E+00
DAV:  26    -0.400909501991E+03   -0.47990E+00   -0.87258E-01  2736   0.196E+00    0.655E+00
DAV:  27    -0.400353558215E+03    0.55594E+00   -0.91679E-01  2944   0.156E+00    0.317E+00
DAV:  28    -0.400319716552E+03    0.33842E-01   -0.27246E-01  3120   0.116E+00    0.202E+00
DAV:  29    -0.400244912793E+03    0.74804E-01   -0.23670E-01  2992   0.711E-01    0.100E+00
DAV:  30    -0.400237942430E+03    0.69704E-02   -0.11385E-01  3040   0.499E-01    0.814E-01
DAV:  31    -0.400239286508E+03   -0.13441E-02   -0.10077E-02  2800   0.213E-01    0.764E-01
DAV:  32    -0.400245674838E+03   -0.63883E-02   -0.14095E-02  3168   0.226E-01    0.792E-01
DAV:  33    -0.400243148495E+03    0.25263E-02   -0.32352E-03  2824   0.142E-01    0.497E-01
DAV:  34    -0.400241103670E+03    0.20448E-02   -0.56426E-03  3064   0.128E-01    0.305E-01
DAV:  35    -0.400240066047E+03    0.10376E-02   -0.26267E-03  3064   0.863E-02    0.172E-01
DAV:  36    -0.400239851705E+03    0.21434E-03   -0.57420E-04  2984   0.474E-02    0.957E-02
DAV:  37    -0.400239824082E+03    0.27623E-04   -0.31363E-04  2584   0.384E-02    0.863E-02
DAV:  38    -0.400239767901E+03    0.56181E-04   -0.14537E-04  2648   0.314E-02    0.545E-02
DAV:  39    -0.400239776275E+03   -0.83738E-05   -0.35813E-04  2816   0.241E-02    0.341E-02
DAV:  40    -0.400239760233E+03    0.16042E-04   -0.59551E-05  2472   0.159E-02    0.303E-02
DAV:  41    -0.400239742518E+03    0.17715E-04   -0.69893E-05  2576   0.171E-02    0.180E-02
DAV:  42    -0.400239741856E+03    0.66268E-06   -0.85469E-06  1568   0.506E-03
   1 F= -.40023974E+03 E0= -.40018522E+03  d E =-.109042E+00
 running on   16 total cores
 distrk:  each k-point on    8 cores,    2 groups
 distr:  one band on    4 cores,    2 groups
 using from now: INCAR     
 vasp.5.4.4.18Apr17-6-g9f103f2a35 (build Nov 27 2019 20:08:17) complex          
  
 POSCAR found type information on POSCAR  Ti
 POSCAR found :  1 types and      36 ions
 scaLAPACK will be used

 ----------------------------------------------------------------------------- 
|                                                                             |
|           W    W    AA    RRRRR   N    N  II  N    N   GGGG   !!!           |
|           W    W   A  A   R    R  NN   N  II  NN   N  G    G  !!!           |
|           W    W  A    A  R    R  N N  N  II  N N  N  G       !!!           |
|           W WW W  AAAAAA  RRRRR   N  N N  II  N  N N  G  GGG   !            |
|           WW  WW  A    A  R   R   N   NN  II  N   NN  G    G                |
|           W    W  A    A  R    R  N    N  II  N    N   GGGG   !!!           |
|                                                                             |
|      You have enabled k-point parallelism (KPAR>1).                         |
|      This developmental code was originally  written by Paul Kent at ORNL,  |
|      and carefully double checked in Vienna.                                |
|      GW as well as linear response parallelism added by Martijn Marsman     |
|      and Georg Kresse.                                                      |
|      Carefully verify results versus KPAR=1.                                |
|      Report problems to Paul Kent and Vienna.                               |
|                                                                             |
 ----------------------------------------------------------------------------- 

 LDA part: xc-table for Pade appr. of Perdew
 POSCAR found type information on POSCAR  Ti
 POSCAR found :  1 types and      36 ions
 POSCAR, INCAR and KPOINTS ok, starting setup
 FFT: planning ...
 WAVECAR not read
 WARNING: random wavefunctions but no delay for mixing, default for NELMDL
 entering main loop
       N       E                     dE             d eps       ncg     rms          rms(c)
DAV:   1     0.727858348221E+03    0.72786E+03   -0.40511E+04  1288   0.107E+03
DAV:   2    -0.188147596563E+03   -0.91601E+03   -0.88157E+03  1304   0.242E+02
DAV:   3    -0.320678936994E+03   -0.13253E+03   -0.12416E+03  1984   0.857E+01
DAV:   4    -0.330625055935E+03   -0.99461E+01   -0.93083E+01  1920   0.278E+01
DAV:   5    -0.331135400709E+03   -0.51034E+00   -0.50051E+00  2032   0.572E+00    0.781E+01
DAV:   6    -0.504051448367E+03   -0.17292E+03   -0.29265E+03  2424   0.995E+01    0.998E+01
DAV:   7    -0.287790895319E+03    0.21626E+03   -0.40018E+03  2268   0.177E+02    0.345E+01
DAV:   8    -0.283866477792E+03    0.39244E+01   -0.57268E+02  1880   0.788E+01    0.376E+01
DAV:   9    -0.268698548503E+03    0.15168E+02   -0.76699E+01  2040   0.280E+01    0.291E+01
DAV:  10    -0.267013929548E+03    0.16846E+01   -0.60133E+00  2112   0.622E+00    0.274E+01
DAV:  11    -0.265180550092E+03    0.18334E+01   -0.14227E+00  2136   0.339E+00    0.249E+01
DAV:  12    -0.261819430141E+03    0.33611E+01   -0.88277E+00  1928   0.907E+00    0.200E+01
DAV:  13    -0.256362365922E+03    0.54571E+01   -0.25816E+01  2104   0.142E+01    0.700E+00
DAV:  14    -0.256076892976E+03    0.28547E+00   -0.26180E+00  2080   0.417E+00    0.481E+00
DAV:  15    -0.256223417612E+03   -0.14652E+00   -0.91411E-01  2056   0.266E+00    0.542E+00
DAV:  16    -0.255945344715E+03    0.27807E+00   -0.24885E+00  2088   0.361E+00    0.327E+00
DAV:  17    -0.255797899157E+03    0.14745E+00   -0.57516E-01  2076   0.242E+00    0.141E+00
DAV:  18    -0.255789725807E+03    0.81733E-02   -0.33424E-01  2008   0.181E+00    0.976E-01
DAV:  19    -0.255833359911E+03   -0.43634E-01   -0.48301E-01  1944   0.193E+00    0.192E+00
DAV:  20    -0.255805070152E+03    0.28290E-01   -0.15130E-01  2032   0.108E+00    0.872E-01
DAV:  21    -0.255793739621E+03    0.11331E-01   -0.62395E-02  1944   0.824E-01    0.227E-01
DAV:  22    -0.255795003149E+03   -0.12635E-02   -0.52602E-03  2168   0.189E-01    0.148E-01
DAV:  23    -0.255796229052E+03   -0.12259E-02   -0.15284E-03  1800   0.113E-01    0.887E-02
DAV:  24    -0.255796484650E+03   -0.25560E-03   -0.15930E-03  2008   0.110E-01    0.740E-02
DAV:  25    -0.255796652077E+03   -0.16743E-03   -0.32866E-04  1888   0.570E-02    0.220E-02
DAV:  26    -0.255796808525E+03   -0.15645E-03   -0.79714E-05  1840   0.210E-02    0.176E-02
DAV:  27    -0.255796994474E+03   -0.18595E-03   -0.35767E-05  1584   0.146E-02    0.857E-03
DAV:  28    -0.255797124947E+03   -0.13047E-03   -0.14985E-05  1272   0.124E-02    0.677E-03
DAV:  29    -0.255797212321E+03   -0.87375E-04   -0.11203E-05  1072   0.974E-03    0.909E-03
DAV:  30    -0.255797240189E+03   -0.27868E-04   -0.46064E-06   896   0.868E-03    0.469E-03
DAV:  31    -0.255797245915E+03   -0.57257E-05   -0.24851E-06   896   0.386E-03    0.305E-03
DAV:  32    -0.255797248633E+03   -0.27180E-05   -0.15129E-06   896   0.274E-03
   1 F= -.25579725E+03 E0= -.25572847E+03  d E =-.137553E+00
 running on   16 total cores
 distrk:  each k-point on    8 cores,    2 groups
 distr:  one band on    4 cores,    2 groups
 using from now: INCAR     
 vasp.5.4.4.18Apr17-6-g9f103f2a35 (build Nov 27 2019 20:08:17) complex          
  
 POSCAR found type information on POSCAR  Ti
 POSCAR found :  1 types and      90 ions
 scaLAPACK will be used

 ----------------------------------------------------------------------------- 
|                                                                             |
|           W    W    AA    RRRRR   N    N  II  N    N   GGGG   !!!           |
|           W    W   A  A   R    R  NN   N  II  NN   N  G    G  !!!           |
|           W    W  A    A  R    R  N N  N  II  N N  N  G       !!!           |
|           W WW W  AAAAAA  RRRRR   N  N N  II  N  N N  G  GGG   !            |
|           WW  WW  A    A  R   R   N   NN  II  N   NN  G    G                |
|           W    W  A    A  R    R  N    N  II  N    N   GGGG   !!!           |
|                                                                             |
|      You have enabled k-point parallelism (KPAR>1).                         |
|      This developmental code was originally  written by Paul Kent at ORNL,  |
|      and carefully double checked in Vienna.                                |
|      GW as well as linear response parallelism added by Martijn Marsman     |
|      and Georg Kresse.                                                      |
|      Carefully verify results versus KPAR=1.                                |
|      Report problems to Paul Kent and Vienna.                               |
|                                                                             |
 ----------------------------------------------------------------------------- 

 LDA part: xc-table for Pade appr. of Perdew
 POSCAR found type information on POSCAR  Ti
 POSCAR found :  1 types and      90 ions
 POSCAR, INCAR and KPOINTS ok, starting setup
 FFT: planning ...
 WAVECAR not read
 WARNING: random wavefunctions but no delay for mixing, default for NELMDL
 entering main loop
       N       E                     dE             d eps       ncg     rms          rms(c)
DAV:   1     0.151911411449E+04    0.15191E+04   -0.10318E+05  3164   0.124E+03
DAV:   2    -0.470444647664E+03   -0.19896E+04   -0.19350E+04  3164   0.276E+02
DAV:   3    -0.767280223846E+03   -0.29684E+03   -0.27719E+03  4768   0.948E+01
DAV:   4    -0.792019123376E+03   -0.24739E+02   -0.23410E+02  4768   0.277E+01
DAV:   5    -0.792995882369E+03   -0.97676E+00   -0.95060E+00  4608   0.424E+00    0.115E+02
DAV:   6    -0.158735782156E+04   -0.79436E+03   -0.74033E+03  6162   0.148E+02    0.107E+02
DAV:   7    -0.125317654326E+04    0.33418E+03   -0.16527E+04  5716   0.166E+02    0.103E+02
DAV:   8    -0.655065901577E+03    0.59811E+03   -0.37900E+03  5476   0.132E+02    0.562E+01
DAV:   9    -0.702666484093E+03   -0.47601E+02   -0.13836E+03  5256   0.660E+01    0.429E+01
DAV:  10    -0.703362764405E+03   -0.69628E+00   -0.24796E+02  5104   0.307E+01    0.367E+01
DAV:  11    -0.695790505804E+03    0.75723E+01   -0.35203E+01  5208   0.114E+01    0.307E+01
DAV:  12    -0.692744855793E+03    0.30457E+01   -0.62809E+00  4656   0.585E+00    0.259E+01
DAV:  13    -0.686476174496E+03    0.62687E+01   -0.16367E+01  4592   0.923E+00    0.148E+01
DAV:  14    -0.684725371633E+03    0.17508E+01   -0.27857E+00  4312   0.415E+00    0.106E+01
DAV:  15    -0.683234389897E+03    0.14910E+01   -0.56794E+00  4672   0.544E+00    0.630E+00
DAV:  16    -0.682610678405E+03    0.62371E+00   -0.43154E+00  4816   0.434E+00    0.352E+00
DAV:  17    -0.682554333612E+03    0.56345E-01   -0.10336E+00  4752   0.232E+00    0.286E+00
DAV:  18    -0.682663458472E+03   -0.10912E+00   -0.59986E-01  4704   0.179E+00    0.348E+00
DAV:  19    -0.682559156290E+03    0.10430E+00   -0.41473E-01  4856   0.140E+00    0.254E+00
DAV:  20    -0.682490677971E+03    0.68478E-01   -0.93510E-01  4568   0.226E+00    0.140E+00
DAV:  21    -0.682468047320E+03    0.22631E-01   -0.13441E-01  4600   0.875E-01    0.878E-01
DAV:  22    -0.682461238053E+03    0.68093E-02   -0.25149E-02  4704   0.338E-01    0.549E-01
DAV:  23    -0.682460204402E+03    0.10337E-02   -0.64582E-03  4816   0.170E-01    0.429E-01
DAV:  24    -0.682459575765E+03    0.62864E-03   -0.68700E-03  4912   0.175E-01    0.286E-01
DAV:  25    -0.682458962076E+03    0.61369E-03   -0.47772E-03  4824   0.138E-01    0.165E-01
DAV:  26    -0.682458840368E+03    0.12171E-03   -0.20671E-03  5016   0.964E-02    0.112E-01
DAV:  27    -0.682458747849E+03    0.92519E-04   -0.64419E-04  4816   0.549E-02    0.666E-02
DAV:  28    -0.682458733528E+03    0.14321E-04   -0.12345E-04  4696   0.282E-02    0.457E-02
DAV:  29    -0.682458721650E+03    0.11878E-04   -0.70683E-05  4488   0.181E-02    0.318E-02
DAV:  30    -0.682458716451E+03    0.51988E-05   -0.84687E-05  4384   0.225E-02    0.239E-02
DAV:  31    -0.682458713188E+03    0.32632E-05   -0.11920E-05  2488   0.869E-03
   1 F= -.68245871E+03 E0= -.68236137E+03  d E =-.194685E+00
Distance=2.500
 running on   16 total cores
 distrk:  each k-point on    8 cores,    2 groups
 distr:  one band on    4 cores,    2 groups
 using from now: INCAR     
 vasp.5.4.4.18Apr17-6-g9f103f2a35 (build Nov 27 2019 20:08:17) complex          
  
 POSCAR found type information on POSCAR  Ti
 POSCAR found :  1 types and      54 ions
 scaLAPACK will be used

 ----------------------------------------------------------------------------- 
|                                                                             |
|           W    W    AA    RRRRR   N    N  II  N    N   GGGG   !!!           |
|           W    W   A  A   R    R  NN   N  II  NN   N  G    G  !!!           |
|           W    W  A    A  R    R  N N  N  II  N N  N  G       !!!           |
|           W WW W  AAAAAA  RRRRR   N  N N  II  N  N N  G  GGG   !            |
|           WW  WW  A    A  R   R   N   NN  II  N   NN  G    G                |
|           W    W  A    A  R    R  N    N  II  N    N   GGGG   !!!           |
|                                                                             |
|      You have enabled k-point parallelism (KPAR>1).                         |
|      This developmental code was originally  written by Paul Kent at ORNL,  |
|      and carefully double checked in Vienna.                                |
|      GW as well as linear response parallelism added by Martijn Marsman     |
|      and Georg Kresse.                                                      |
|      Carefully verify results versus KPAR=1.                                |
|      Report problems to Paul Kent and Vienna.                               |
|                                                                             |
 ----------------------------------------------------------------------------- 

 LDA part: xc-table for Pade appr. of Perdew
 POSCAR found type information on POSCAR  Ti
 POSCAR found :  1 types and      54 ions
 POSCAR, INCAR and KPOINTS ok, starting setup
 FFT: planning ...
 WAVECAR not read
 entering main loop
       N       E                     dE             d eps       ncg     rms          rms(c)
DAV:   1     0.101733439909E+04    0.10173E+04   -0.62040E+04  1904   0.115E+03
DAV:   2    -0.279414285516E+03   -0.12967E+04   -0.12565E+04  1904   0.255E+02
DAV:   3    -0.468037168765E+03   -0.18862E+03   -0.17929E+03  2992   0.870E+01
DAV:   4    -0.485088434994E+03   -0.17051E+02   -0.16166E+02  3040   0.275E+01
DAV:   5    -0.486208129408E+03   -0.11197E+01   -0.10617E+01  3088   0.577E+00    0.858E+01
DAV:   6    -0.925896574344E+03   -0.43969E+03   -0.53664E+03  3768   0.108E+02    0.127E+02
DAV:   7    -0.454052375480E+03    0.47184E+03   -0.75221E+03  3408   0.161E+02    0.505E+01
DAV:   8    -0.410099866292E+03    0.43953E+02   -0.10998E+03  3176   0.972E+01    0.343E+01
DAV:   9    -0.416406751328E+03   -0.63069E+01   -0.22310E+02  3168   0.306E+01    0.301E+01
DAV:  10    -0.417950967046E+03   -0.15442E+01   -0.23161E+01  3160   0.875E+00    0.313E+01
DAV:  11    -0.418136443236E+03   -0.18548E+00   -0.17370E+00  3080   0.180E+00    0.315E+01
DAV:  12    -0.422093327948E+03   -0.39569E+01   -0.74700E+00  3056   0.621E+00    0.348E+01
DAV:  13    -0.417068565607E+03    0.50248E+01   -0.10177E+01  3024   0.716E+00    0.301E+01
DAV:  14    -0.412332090578E+03    0.47365E+01   -0.38360E+01  2984   0.149E+01    0.232E+01
DAV:  15    -0.415410976479E+03   -0.30789E+01   -0.39828E+01  2984   0.165E+01    0.219E+01
DAV:  16    -0.408257157295E+03    0.71538E+01   -0.12785E+01  2808   0.831E+00    0.172E+01
DAV:  17    -0.402707869603E+03    0.55493E+01   -0.10199E+01  3064   0.594E+00    0.109E+01
DAV:  18    -0.403658440657E+03   -0.95057E+00   -0.15437E+00  2824   0.337E+00    0.119E+01
DAV:  19    -0.401476436841E+03    0.21820E+01   -0.27523E+00  3104   0.338E+00    0.729E+00
DAV:  20    -0.400444737691E+03    0.10317E+01   -0.36155E+00  3080   0.372E+00    0.303E+00
DAV:  21    -0.400534026515E+03   -0.89289E-01   -0.27709E+00  3024   0.274E+00    0.390E+00
DAV:  22    -0.400580127113E+03   -0.46101E-01   -0.22869E-01  2824   0.119E+00    0.411E+00
DAV:  23    -0.400645424515E+03   -0.65297E-01   -0.51987E-02  3376   0.298E-01    0.443E+00
DAV:  24    -0.402235672413E+03   -0.15902E+01   -0.41233E+00  3032   0.321E+00    0.975E+00
DAV:  25    -0.401447656652E+03    0.78802E+00   -0.81013E-01  3008   0.230E+00    0.772E+00
DAV:  26    -0.401739748505E+03   -0.29209E+00   -0.99666E-02  2568   0.818E-01    0.841E+00
DAV:  27    -0.401800390022E+03   -0.60642E-01   -0.57618E-02  3104   0.697E-01    0.862E+00
DAV:  28    -0.401696543492E+03    0.10385E+00   -0.26760E-02  3064   0.427E-01    0.831E+00
DAV:  29    -0.401005394414E+03    0.69115E+00   -0.54031E-01  3024   0.110E+00    0.604E+00
DAV:  30    -0.400559032117E+03    0.44636E+00   -0.53378E-01  3112   0.109E+00    0.399E+00
DAV:  31    -0.400409039048E+03    0.14999E+00   -0.13722E-01  3080   0.562E-01    0.308E+00
DAV:  32    -0.400394724287E+03    0.14315E-01   -0.12702E-02  3072   0.214E-01    0.289E+00
DAV:  33    -0.400319994812E+03    0.74729E-01   -0.66469E-02  3000   0.377E-01    0.218E+00
DAV:  34    -0.400287206370E+03    0.32788E-01   -0.30355E-02  3136   0.257E-01    0.166E+00
DAV:  35    -0.400251206271E+03    0.36000E-01   -0.73931E-02  2992   0.415E-01    0.958E-01
DAV:  36    -0.400243841787E+03    0.73645E-02   -0.20498E-02  3152   0.279E-01    0.580E-01
DAV:  37    -0.400241304400E+03    0.25374E-02   -0.40861E-03  3048   0.980E-02    0.383E-01
DAV:  38    -0.400239410693E+03    0.18937E-02   -0.62938E-03  3048   0.162E-01    0.164E-01
DAV:  39    -0.400239267689E+03    0.14300E-03   -0.87161E-04  3256   0.474E-02    0.121E-01
DAV:  40    -0.400239499399E+03   -0.23171E-03   -0.38369E-04  2808   0.490E-02    0.133E-01
DAV:  41    -0.400239494302E+03    0.50978E-05   -0.96484E-05  2680   0.230E-02    0.126E-01
DAV:  42    -0.400239321017E+03    0.17328E-03   -0.16381E-04  2976   0.219E-02    0.830E-02
DAV:  43    -0.400239254125E+03    0.66892E-04   -0.27164E-04  3104   0.274E-02    0.356E-02
DAV:  44    -0.400239271153E+03   -0.17028E-04   -0.32002E-05  2176   0.116E-02    0.249E-02
DAV:  45    -0.400239272912E+03   -0.17583E-05   -0.10570E-05  1616   0.702E-03
   1 F= -.40023927E+03 E0= -.40018473E+03  d E =-.109079E+00
 running on   16 total cores
 distrk:  each k-point on    8 cores,    2 groups
 distr:  one band on    4 cores,    2 groups
 using from now: INCAR     
 vasp.5.4.4.18Apr17-6-g9f103f2a35 (build Nov 27 2019 20:08:17) complex          
  
 POSCAR found type information on POSCAR  Ti
 POSCAR found :  1 types and      36 ions
 scaLAPACK will be used

 ----------------------------------------------------------------------------- 
|                                                                             |
|           W    W    AA    RRRRR   N    N  II  N    N   GGGG   !!!           |
|           W    W   A  A   R    R  NN   N  II  NN   N  G    G  !!!           |
|           W    W  A    A  R    R  N N  N  II  N N  N  G       !!!           |
|           W WW W  AAAAAA  RRRRR   N  N N  II  N  N N  G  GGG   !            |
|           WW  WW  A    A  R   R   N   NN  II  N   NN  G    G                |
|           W    W  A    A  R    R  N    N  II  N    N   GGGG   !!!           |
|                                                                             |
|      You have enabled k-point parallelism (KPAR>1).                         |
|      This developmental code was originally  written by Paul Kent at ORNL,  |
|      and carefully double checked in Vienna.                                |
|      GW as well as linear response parallelism added by Martijn Marsman     |
|      and Georg Kresse.                                                      |
|      Carefully verify results versus KPAR=1.                                |
|      Report problems to Paul Kent and Vienna.                               |
|                                                                             |
 ----------------------------------------------------------------------------- 

 LDA part: xc-table for Pade appr. of Perdew
 POSCAR found type information on POSCAR  Ti
 POSCAR found :  1 types and      36 ions
 POSCAR, INCAR and KPOINTS ok, starting setup
 FFT: planning ...
 WAVECAR not read
 WARNING: random wavefunctions but no delay for mixing, default for NELMDL
 entering main loop
       N       E                     dE             d eps       ncg     rms          rms(c)
DAV:   1     0.732212672526E+03    0.73221E+03   -0.40331E+04  1288   0.106E+03
DAV:   2    -0.185813492816E+03   -0.91803E+03   -0.88200E+03  1292   0.241E+02
DAV:   3    -0.320624335170E+03   -0.13481E+03   -0.12650E+03  1984   0.855E+01
DAV:   4    -0.330611838529E+03   -0.99875E+01   -0.93053E+01  1936   0.280E+01
DAV:   5    -0.331136271958E+03   -0.52443E+00   -0.51077E+00  2016   0.567E+00    0.782E+01
DAV:   6    -0.508050759631E+03   -0.17691E+03   -0.29855E+03  2424   0.100E+02    0.100E+02
DAV:   7    -0.288710007588E+03    0.21934E+03   -0.41013E+03  2228   0.180E+02    0.346E+01
DAV:   8    -0.284977279796E+03    0.37327E+01   -0.58506E+02  1880   0.797E+01    0.381E+01
DAV:   9    -0.269287052601E+03    0.15690E+02   -0.80818E+01  2040   0.291E+01    0.295E+01
DAV:  10    -0.267672496728E+03    0.16146E+01   -0.60220E+00  2080   0.637E+00    0.280E+01
DAV:  11    -0.265951534298E+03    0.17210E+01   -0.12367E+00  2092   0.303E+00    0.257E+01
DAV:  12    -0.262633657387E+03    0.33179E+01   -0.74060E+00  1948   0.828E+00    0.212E+01
DAV:  13    -0.256412409184E+03    0.62212E+01   -0.29392E+01  2120   0.151E+01    0.741E+00
DAV:  14    -0.256113180684E+03    0.29923E+00   -0.28297E+00  2072   0.434E+00    0.510E+00
DAV:  15    -0.256205015951E+03   -0.91835E-01   -0.64844E-01  2040   0.225E+00    0.534E+00
DAV:  16    -0.256003489997E+03    0.20153E+00   -0.28811E+00  2088   0.408E+00    0.388E+00
DAV:  17    -0.255802188670E+03    0.20130E+00   -0.96441E-01  2080   0.306E+00    0.157E+00
DAV:  18    -0.255781032167E+03    0.21157E-01   -0.19160E-01  1952   0.127E+00    0.705E-01
DAV:  19    -0.255795750498E+03   -0.14718E-01   -0.72288E-02  2000   0.759E-01    0.868E-01
DAV:  20    -0.255795337550E+03    0.41295E-03   -0.12222E-01  1984   0.893E-01    0.614E-01
DAV:  21    -0.255791609594E+03    0.37280E-02   -0.25224E-02  1960   0.542E-01    0.191E-01
DAV:  22    -0.255795514026E+03   -0.39044E-02   -0.11866E-02  2056   0.292E-01    0.237E-01
DAV:  23    -0.255796175099E+03   -0.66107E-03   -0.47555E-03  1952   0.190E-01    0.614E-02
DAV:  24    -0.255796904236E+03   -0.72914E-03   -0.85418E-04  2000   0.817E-02    0.108E-01
DAV:  25    -0.255797007740E+03   -0.10350E-03   -0.15338E-03  2000   0.103E-01    0.563E-02
DAV:  26    -0.255797118309E+03   -0.11057E-03   -0.27147E-04  1904   0.515E-02    0.181E-02
DAV:  27    -0.255797164682E+03   -0.46373E-04   -0.27063E-05  1536   0.141E-02    0.117E-02
DAV:  28    -0.255797266473E+03   -0.10179E-03   -0.22173E-05  1472   0.116E-02    0.176E-02
DAV:  29    -0.255797323472E+03   -0.56999E-04   -0.29848E-05  1504   0.167E-02    0.530E-03
DAV:  30    -0.255797331292E+03   -0.78196E-05   -0.26011E-06   896   0.419E-03    0.328E-03
DAV:  31    -0.255797367479E+03   -0.36187E-04   -0.48010E-06   912   0.503E-03    0.618E-03
DAV:  32    -0.255797402675E+03   -0.35196E-04   -0.71517E-06  1088   0.446E-03    0.811E-03
DAV:  33    -0.255797402223E+03    0.45192E-06   -0.10934E-06   896   0.239E-03
   1 F= -.25579740E+03 E0= -.25572863E+03  d E =-.137551E+00
 running on   16 total cores
 distrk:  each k-point on    8 cores,    2 groups
 distr:  one band on    4 cores,    2 groups
 using from now: INCAR     
 vasp.5.4.4.18Apr17-6-g9f103f2a35 (build Nov 27 2019 20:08:17) complex          
  
 POSCAR found type information on POSCAR  Ti
 POSCAR found :  1 types and      90 ions
 scaLAPACK will be used

 ----------------------------------------------------------------------------- 
|                                                                             |
|           W    W    AA    RRRRR   N    N  II  N    N   GGGG   !!!           |
|           W    W   A  A   R    R  NN   N  II  NN   N  G    G  !!!           |
|           W    W  A    A  R    R  N N  N  II  N N  N  G       !!!           |
|           W WW W  AAAAAA  RRRRR   N  N N  II  N  N N  G  GGG   !            |
|           WW  WW  A    A  R   R   N   NN  II  N   NN  G    G                |
|           W    W  A    A  R    R  N    N  II  N    N   GGGG   !!!           |
|                                                                             |
|      You have enabled k-point parallelism (KPAR>1).                         |
|      This developmental code was originally  written by Paul Kent at ORNL,  |
|      and carefully double checked in Vienna.                                |
|      GW as well as linear response parallelism added by Martijn Marsman     |
|      and Georg Kresse.                                                      |
|      Carefully verify results versus KPAR=1.                                |
|      Report problems to Paul Kent and Vienna.                               |
|                                                                             |
 ----------------------------------------------------------------------------- 

 LDA part: xc-table for Pade appr. of Perdew
 POSCAR found type information on POSCAR  Ti
 POSCAR found :  1 types and      90 ions
 POSCAR, INCAR and KPOINTS ok, starting setup
 FFT: planning ...
 WAVECAR not read
 WARNING: random wavefunctions but no delay for mixing, default for NELMDL
 entering main loop
       N       E                     dE             d eps       ncg     rms          rms(c)
DAV:   1     0.149032039106E+04    0.14903E+04   -0.10286E+05  3164   0.123E+03
DAV:   2    -0.480264132385E+03   -0.19706E+04   -0.19167E+04  3164   0.274E+02
DAV:   3    -0.780150991963E+03   -0.29989E+03   -0.28072E+03  4800   0.944E+01
DAV:   4    -0.804691350163E+03   -0.24540E+02   -0.23473E+02  4736   0.279E+01
DAV:   5    -0.805705069051E+03   -0.10137E+01   -0.98523E+00  4640   0.426E+00    0.115E+02
DAV:   6    -0.141374513672E+04   -0.60804E+03   -0.62450E+03  6080   0.130E+02    0.888E+01
DAV:   7    -0.171754420079E+04   -0.30380E+03   -0.18484E+04  5828   0.149E+02    0.148E+02
DAV:   8    -0.628084892405E+03    0.10895E+04   -0.60328E+03  5654   0.169E+02    0.532E+01
DAV:   9    -0.719271861339E+03   -0.91187E+02   -0.20959E+03  5584   0.803E+01    0.539E+01
DAV:  10    -0.698104522797E+03    0.21167E+02   -0.60104E+02  5392   0.570E+01    0.357E+01
DAV:  11    -0.692764550762E+03    0.53400E+01   -0.83444E+01  5208   0.158E+01    0.292E+01
DAV:  12    -0.687589877932E+03    0.51747E+01   -0.53307E+01  5064   0.131E+01    0.224E+01
DAV:  13    -0.684439088671E+03    0.31508E+01   -0.29804E+01  5032   0.997E+00    0.159E+01
[...]
DAV:  41    -0.656116750626E+03    0.17329E-03   -0.98446E-04  4896   0.531E-02    0.817E-02
DAV:  42    -0.656116725721E+03    0.24904E-04   -0.18531E-04  4712   0.299E-02    0.524E-02
DAV:  43    -0.656116719975E+03    0.57468E-05   -0.10714E-04  4944   0.186E-02    0.418E-02
DAV:  44    -0.656116707426E+03    0.12549E-04   -0.10356E-04  4832   0.198E-02    0.396E-02
DAV:  45    -0.656116697255E+03    0.10171E-04   -0.15269E-05  3208   0.810E-03    0.293E-02
DAV:  46    -0.656116688818E+03    0.84366E-05   -0.11299E-05  2584   0.748E-03    0.132E-02
DAV:  47    -0.656116687378E+03    0.14396E-05   -0.24486E-05  3800   0.806E-03
   1 F= -.65611669E+03 E0= -.65599275E+03  d E =-.247878E+00
Distance=10.000
 running on   16 total cores
 distrk:  each k-point on    8 cores,    2 groups
 distr:  one band on    4 cores,    2 groups
 using from now: INCAR     
 vasp.5.4.4.18Apr17-6-g9f103f2a35 (build Nov 27 2019 20:08:17) complex          
  
 POSCAR found type information on POSCAR  Ti
 POSCAR found :  1 types and      54 ions
 scaLAPACK will be used

 ----------------------------------------------------------------------------- 
|                                                                             |
|           W    W    AA    RRRRR   N    N  II  N    N   GGGG   !!!           |
|           W    W   A  A   R    R  NN   N  II  NN   N  G    G  !!!           |
|           W    W  A    A  R    R  N N  N  II  N N  N  G       !!!           |
|           W WW W  AAAAAA  RRRRR   N  N N  II  N  N N  G  GGG   !            |
|           WW  WW  A    A  R   R   N   NN  II  N   NN  G    G                |
|           W    W  A    A  R    R  N    N  II  N    N   GGGG   !!!           |
|                                                                             |
|      You have enabled k-point parallelism (KPAR>1).                         |
|      This developmental code was originally  written by Paul Kent at ORNL,  |
|      and carefully double checked in Vienna.                                |
|      GW as well as linear response parallelism added by Martijn Marsman     |
|      and Georg Kresse.                                                      |
|      Carefully verify results versus KPAR=1.                                |
|      Report problems to Paul Kent and Vienna.                               |
|                                                                             |
 ----------------------------------------------------------------------------- 

 LDA part: xc-table for Pade appr. of Perdew
 POSCAR found type information on POSCAR  Ti
 POSCAR found :  1 types and      54 ions
 POSCAR, INCAR and KPOINTS ok, starting setup
 FFT: planning ...
 WAVECAR not read
 entering main loop
       N       E                     dE             d eps       ncg     rms          rms(c)
DAV:   1     0.108671132459E+04    0.10867E+04   -0.59769E+04  1904   0.106E+03
DAV:   2    -0.281003638714E+03   -0.13677E+04   -0.13205E+04  1936   0.243E+02
DAV:   3    -0.469339153474E+03   -0.18834E+03   -0.17980E+03  3184   0.823E+01
DAV:   4    -0.485069632760E+03   -0.15730E+02   -0.14863E+02  2968   0.257E+01
DAV:   5    -0.486202814946E+03   -0.11332E+01   -0.10760E+01  3136   0.581E+00    0.857E+01
DAV:   6    -0.935004546756E+03   -0.44880E+03   -0.54448E+03  3776   0.109E+02    0.128E+02
DAV:   7    -0.574873557451E+03    0.36013E+03   -0.11058E+04  3328   0.185E+02    0.623E+01
DAV:   8    -0.421326391184E+03    0.15355E+03   -0.15204E+03  2984   0.129E+02    0.466E+01
DAV:   9    -0.418855702914E+03    0.24707E+01   -0.39333E+02  3136   0.476E+01    0.353E+01
DAV:  10    -0.421184707725E+03   -0.23290E+01   -0.54615E+01  3160   0.131E+01    0.345E+01
DAV:  11    -0.420316951710E+03    0.86776E+00   -0.42142E+00  3160   0.381E+00    0.334E+01
DAV:  12    -0.408562670334E+03    0.11754E+02   -0.23588E+01  2520   0.154E+01    0.180E+01
DAV:  13    -0.403480495354E+03    0.50822E+01   -0.61151E+00  2728   0.757E+00    0.117E+01
DAV:  14    -0.404025599428E+03   -0.54510E+00   -0.42063E-01  2848   0.169E+00    0.125E+01
DAV:  15    -0.401330051027E+03    0.26955E+01   -0.64743E+00  3104   0.578E+00    0.652E+00
DAV:  16    -0.400664311428E+03    0.66574E+00   -0.13482E+00  2352   0.385E+00    0.432E+00
DAV:  17    -0.400328821211E+03    0.33549E+00   -0.57479E+00  2944   0.666E+00    0.248E+00
DAV:  18    -0.400248878318E+03    0.79943E-01   -0.45108E-01  2704   0.177E+00    0.119E+00
DAV:  19    -0.400233311780E+03    0.15567E-01   -0.10120E-01  3072   0.766E-01    0.456E-01
DAV:  20    -0.400233186892E+03    0.12489E-03   -0.11412E-02  3088   0.246E-01    0.193E-01
DAV:  21    -0.400235475597E+03   -0.22887E-02   -0.69620E-03  2976   0.181E-01    0.146E-01
DAV:  22    -0.400238016785E+03   -0.25412E-02   -0.10247E-02  3080   0.259E-01    0.293E-01
DAV:  23    -0.400237394627E+03    0.62216E-03   -0.49783E-03  2984   0.195E-01    0.140E-01
DAV:  24    -0.400237641289E+03   -0.24666E-03   -0.14350E-03  2392   0.119E-01    0.586E-02
DAV:  25    -0.400237892614E+03   -0.25132E-03   -0.17494E-04  2864   0.423E-02    0.443E-02
DAV:  26    -0.400238340468E+03   -0.44785E-03   -0.81045E-04  2912   0.801E-02    0.466E-02
DAV:  27    -0.400238459400E+03   -0.11893E-03   -0.17183E-04  2568   0.359E-02    0.223E-02
DAV:  28    -0.400238596112E+03   -0.13671E-03   -0.97560E-05  2912   0.213E-02    0.233E-02
DAV:  29    -0.400238612038E+03   -0.15925E-04   -0.21853E-05  1888   0.126E-02    0.151E-02
DAV:  30    -0.400238644049E+03   -0.32011E-04   -0.19712E-05  1856   0.961E-03    0.516E-03
DAV:  31    -0.400238668905E+03   -0.24856E-04   -0.33860E-06  1288   0.488E-03    0.378E-03
DAV:  32    -0.400238698474E+03   -0.29569E-04   -0.34723E-06  1328   0.404E-03    0.868E-03
DAV:  33    -0.400238706954E+03   -0.84801E-05   -0.13115E-06  1240   0.390E-03    0.613E-03
DAV:  34    -0.400238712645E+03   -0.56906E-05   -0.11352E-06  1240   0.346E-03    0.198E-03
DAV:  35    -0.400238714511E+03   -0.18660E-05   -0.10894E-06  1240   0.193E-03
   1 F= -.40023871E+03 E0= -.40018420E+03  d E =-.109035E+00
 running on   16 total cores
 distrk:  each k-point on    8 cores,    2 groups
 distr:  one band on    4 cores,    2 groups
 using from now: INCAR     
 vasp.5.4.4.18Apr17-6-g9f103f2a35 (build Nov 27 2019 20:08:17) complex          
  
 POSCAR found type information on POSCAR  Ti
 POSCAR found :  1 types and      36 ions
 scaLAPACK will be used

 ----------------------------------------------------------------------------- 
|                                                                             |
|           W    W    AA    RRRRR   N    N  II  N    N   GGGG   !!!           |
|           W    W   A  A   R    R  NN   N  II  NN   N  G    G  !!!           |
|           W    W  A    A  R    R  N N  N  II  N N  N  G       !!!           |
|           W WW W  AAAAAA  RRRRR   N  N N  II  N  N N  G  GGG   !            |
|           WW  WW  A    A  R   R   N   NN  II  N   NN  G    G                |
|           W    W  A    A  R    R  N    N  II  N    N   GGGG   !!!           |
|                                                                             |
|      You have enabled k-point parallelism (KPAR>1).                         |
|      This developmental code was originally  written by Paul Kent at ORNL,  |
|      and carefully double checked in Vienna.                                |
|      GW as well as linear response parallelism added by Martijn Marsman     |
|      and Georg Kresse.                                                      |
|      Carefully verify results versus KPAR=1.                                |
|      Report problems to Paul Kent and Vienna.                               |
|                                                                             |
 ----------------------------------------------------------------------------- 

 LDA part: xc-table for Pade appr. of Perdew
 POSCAR found type information on POSCAR  Ti
 POSCAR found :  1 types and      36 ions
 POSCAR, INCAR and KPOINTS ok, starting setup
 FFT: planning ...
 WAVECAR not read
 WARNING: random wavefunctions but no delay for mixing, default for NELMDL
 entering main loop
       N       E                     dE             d eps       ncg     rms          rms(c)
DAV:   1     0.722843273718E+03    0.72284E+03   -0.37796E+04  1288   0.979E+02
DAV:   2    -0.212563198676E+03   -0.93541E+03   -0.88786E+03  1464   0.232E+02
DAV:   3    -0.323281854407E+03   -0.11072E+03   -0.10461E+03  1928   0.828E+01
DAV:   4    -0.330749508893E+03   -0.74677E+01   -0.70448E+01  1968   0.238E+01
DAV:   5    -0.331144170463E+03   -0.39466E+00   -0.38864E+00  2008   0.496E+00    0.782E+01
DAV:   6    -0.510592757278E+03   -0.17945E+03   -0.30104E+03  2424   0.100E+02    0.100E+02
DAV:   7    -0.308009529950E+03    0.20258E+03   -0.48033E+03  2252   0.193E+02    0.387E+01
DAV:   8    -0.284862802566E+03    0.23147E+02   -0.64887E+02  1820   0.882E+01    0.376E+01
DAV:   9    -0.274674875010E+03    0.10188E+02   -0.60106E+01  2064   0.237E+01    0.332E+01
DAV:  10    -0.266704888662E+03    0.79700E+01   -0.10702E+01  2136   0.920E+00    0.257E+01
DAV:  11    -0.263634306351E+03    0.30706E+01   -0.34708E+00  2096   0.546E+00    0.217E+01
DAV:  12    -0.259641495205E+03    0.39928E+01   -0.12489E+01  1912   0.111E+01    0.152E+01
DAV:  13    -0.257423590957E+03    0.22179E+01   -0.14866E+01  2096   0.105E+01    0.108E+01
DAV:  14    -0.256576575560E+03    0.84702E+00   -0.37785E+00  2112   0.431E+00    0.674E+00
DAV:  15    -0.256788236054E+03   -0.21166E+00   -0.68275E-01  2296   0.157E+00    0.763E+00
DAV:  16    -0.256403369686E+03    0.38487E+00   -0.11134E+00  1888   0.341E+00    0.591E+00
DAV:  17    -0.255802698124E+03    0.60067E+00   -0.21090E+00  1968   0.429E+00    0.155E+00
DAV:  18    -0.255805099848E+03   -0.24017E-02   -0.45483E-01  2208   0.133E+00    0.145E+00
DAV:  19    -0.255804666572E+03    0.43328E-03   -0.35238E-02  1944   0.542E-01    0.137E+00
DAV:  20    -0.255794806193E+03    0.98604E-02   -0.49982E-02  2048   0.612E-01    0.740E-01
DAV:  21    -0.255790420688E+03    0.43855E-02   -0.80747E-02  1968   0.860E-01    0.285E-01
DAV:  22    -0.255791528051E+03   -0.11074E-02   -0.80826E-03  1912   0.225E-01    0.183E-01
DAV:  23    -0.255794001899E+03   -0.24738E-02   -0.41319E-03  2072   0.147E-01    0.154E-01
DAV:  24    -0.255794994276E+03   -0.99238E-03   -0.35664E-03  2136   0.152E-01    0.115E-01
DAV:  25    -0.255796398788E+03   -0.14045E-02   -0.51911E-03  1952   0.191E-01    0.177E-01
DAV:  26    -0.255796634254E+03   -0.23547E-03   -0.15058E-03  1928   0.104E-01    0.700E-02
DAV:  27    -0.255796878173E+03   -0.24392E-03   -0.27550E-04  1944   0.423E-02    0.260E-02
DAV:  28    -0.255797039722E+03   -0.16155E-03   -0.55666E-05  1928   0.202E-02    0.310E-02
DAV:  29    -0.255797303637E+03   -0.26392E-03   -0.14403E-04  1864   0.326E-02    0.143E-02
DAV:  30    -0.255797429167E+03   -0.12553E-03   -0.42099E-05  1656   0.173E-02    0.131E-02
DAV:  31    -0.255797450272E+03   -0.21105E-04   -0.18691E-05  1296   0.131E-02    0.520E-03
DAV:  32    -0.255797487112E+03   -0.36839E-04   -0.33956E-06   888   0.650E-03    0.448E-03
DAV:  33    -0.255797508852E+03   -0.21741E-04   -0.13218E-06   872   0.436E-03    0.252E-03
DAV:  34    -0.255797518632E+03   -0.97800E-05   -0.73881E-07   856   0.216E-03    0.142E-03
DAV:  35    -0.255797522864E+03   -0.42321E-05   -0.46215E-07   824   0.234E-03
   1 F= -.25579752E+03 E0= -.25572874E+03  d E =-.137562E+00
 running on   16 total cores
 distrk:  each k-point on    8 cores,    2 groups
 distr:  one band on    4 cores,    2 groups
 using from now: INCAR     
 vasp.5.4.4.18Apr17-6-g9f103f2a35 (build Nov 27 2019 20:08:17) complex          
  
 POSCAR found type information on POSCAR  Ti
 POSCAR found :  1 types and      90 ions
 scaLAPACK will be used

 ----------------------------------------------------------------------------- 
|                                                                             |
|           W    W    AA    RRRRR   N    N  II  N    N   GGGG   !!!           |
|           W    W   A  A   R    R  NN   N  II  NN   N  G    G  !!!           |
|           W    W  A    A  R    R  N N  N  II  N N  N  G       !!!           |
|           W WW W  AAAAAA  RRRRR   N  N N  II  N  N N  G  GGG   !            |
|           WW  WW  A    A  R   R   N   NN  II  N   NN  G    G                |
|           W    W  A    A  R    R  N    N  II  N    N   GGGG   !!!           |
|                                                                             |
|      You have enabled k-point parallelism (KPAR>1).                         |
|      This developmental code was originally  written by Paul Kent at ORNL,  |
|      and carefully double checked in Vienna.                                |
|      GW as well as linear response parallelism added by Martijn Marsman     |
|      and Georg Kresse.                                                      |
|      Carefully verify results versus KPAR=1.                                |
|      Report problems to Paul Kent and Vienna.                               |
|                                                                             |
 ----------------------------------------------------------------------------- 

 LDA part: xc-table for Pade appr. of Perdew
 POSCAR found type information on POSCAR  Ti
 POSCAR found :  1 types and      90 ions
 POSCAR, INCAR and KPOINTS ok, starting setup
 FFT: planning ...
 WAVECAR not read
 WARNING: random wavefunctions but no delay for mixing, default for NELMDL
 entering main loop
       N       E                     dE             d eps       ncg     rms          rms(c)
DAV:   1     0.170579270758E+04    0.17058E+04   -0.10308E+05  3164   0.115E+03
DAV:   2    -0.459163251229E+03   -0.21650E+04   -0.20930E+04  3164   0.256E+02
DAV:   3    -0.792638241194E+03   -0.33347E+03   -0.31568E+03  4920   0.910E+01
DAV:   4    -0.820804096372E+03   -0.28166E+02   -0.26865E+02  4928   0.286E+01
DAV:   5    -0.822346019311E+03   -0.15419E+01   -0.14908E+01  5008   0.572E+00    0.117E+02
DAV:   6    -0.378565438082E+04   -0.29633E+04   -0.33428E+04  5268   0.963E+01    0.124E+02
DAV:   7    -0.379982749623E+04   -0.14173E+02   -0.59835E+04  6306   0.106E+02    0.238E+02
DAV:   8    -0.576667684471E+03    0.32232E+04   -0.92380E+03  4622   0.216E+02    0.639E+01
DAV:   9    -0.100841446520E+04   -0.43175E+03   -0.78321E+03  5944   0.113E+02    0.104E+02
DAV:  10    -0.719124973795E+03    0.28929E+03   -0.30361E+03  5210   0.130E+02    0.479E+01
DAV:  11    -0.686501765266E+03    0.32623E+02   -0.81454E+02  5328   0.575E+01    0.386E+01
DAV:  12    -0.680614988671E+03    0.58868E+01   -0.15779E+02  5160   0.209E+01    0.317E+01
DAV:  13    -0.714353384946E+03   -0.33738E+02   -0.16911E+02  5352   0.182E+01    0.466E+01
DAV:  14    -0.674490249942E+03    0.39863E+02   -0.47016E+01  5000   0.943E+00    0.272E+01
DAV:  15    -0.668099548904E+03    0.63907E+01   -0.12181E+01  5160   0.483E+00    0.211E+01
DAV:  16    -0.670336116026E+03   -0.22366E+01   -0.14477E+01  4984   0.592E+00    0.262E+01
DAV:  17    -0.662358403204E+03    0.79777E+01   -0.16140E+01  5176   0.491E+00    0.144E+01
DAV:  18    -0.661077450535E+03    0.12810E+01   -0.57330E+00  4960   0.374E+00    0.129E+01
DAV:  19    -0.659708384491E+03    0.13691E+01   -0.20269E+00  4984   0.159E+00    0.114E+01
DAV:  20    -0.659554794195E+03    0.15359E+00   -0.44512E-01  4952   0.814E-01    0.110E+01
DAV:  21    -0.659784783730E+03   -0.22999E+00   -0.52735E-01  4920   0.721E-01    0.113E+01
DAV:  22    -0.660531072709E+03   -0.74629E+00   -0.14016E+00  5096   0.128E+00    0.122E+01
DAV:  23    -0.659841424115E+03    0.68965E+00   -0.48248E-01  4792   0.116E+00    0.113E+01
DAV:  24    -0.658524407993E+03    0.13170E+01   -0.20754E+00  5088   0.173E+00    0.916E+00
DAV:  25    -0.657946385954E+03    0.57802E+00   -0.13520E+00  4664   0.271E+00    0.788E+00
DAV:  26    -0.657524864169E+03    0.42152E+00   -0.32169E-01  4440   0.127E+00    0.701E+00
DAV:  27    -0.657151537335E+03    0.37333E+00   -0.27982E-01  4896   0.637E-01    0.597E+00
DAV:  28    -0.656613249070E+03    0.53829E+00   -0.11456E+00  4968   0.971E-01    0.430E+00
DAV:  29    -0.656392081736E+03    0.22117E+00   -0.50033E-01  4920   0.134E+00    0.311E+00
DAV:  30    -0.656315649159E+03    0.76433E-01   -0.21041E-01  4800   0.883E-01    0.281E+00
DAV:  31    -0.656193654492E+03    0.12199E+00   -0.33827E-01  4824   0.633E-01    0.180E+00
DAV:  32    -0.656152146730E+03    0.41508E-01   -0.99183E-02  5096   0.343E-01    0.147E+00
DAV:  33    -0.656124040557E+03    0.28106E-01   -0.63453E-02  4976   0.425E-01    0.102E+00
DAV:  34    -0.656121638449E+03    0.24021E-02   -0.79705E-02  4800   0.365E-01    0.823E-01
DAV:  35    -0.656122888042E+03   -0.12496E-02   -0.27612E-02  5136   0.310E-01    0.885E-01
DAV:  36    -0.656117887693E+03    0.50003E-02   -0.10257E-02  5088   0.187E-01    0.743E-01
DAV:  37    -0.656111851182E+03    0.60365E-02   -0.12987E-02  4976   0.160E-01    0.485E-01
DAV:  38    -0.656112361212E+03   -0.51003E-03   -0.11205E-02  5144   0.154E-01    0.462E-01
DAV:  39    -0.656111335587E+03    0.10256E-02   -0.47085E-03  5232   0.102E-01    0.325E-01
DAV:  40    -0.656110008758E+03    0.13268E-02   -0.18848E-03  4704   0.784E-02    0.173E-01
DAV:  41    -0.656109826178E+03    0.18258E-03   -0.14077E-03  5112   0.553E-02    0.984E-02
DAV:  42    -0.656109936860E+03   -0.11068E-03   -0.24281E-04  4168   0.332E-02    0.777E-02
DAV:  43    -0.656109924659E+03    0.12201E-04   -0.13533E-04  4656   0.245E-02    0.525E-02
DAV:  44    -0.656109963072E+03   -0.38413E-04   -0.17186E-04  4488   0.269E-02    0.572E-02
DAV:  45    -0.656109939528E+03    0.23544E-04   -0.76379E-05  4712   0.169E-02    0.204E-02
DAV:  46    -0.656109942445E+03   -0.29168E-05   -0.24643E-05  3664   0.101E-02
   1 F= -.65610994E+03 E0= -.65598616E+03  d E =-.247574E+00

DISTANCE=0.500
E_alpha= -400.245696  E_beta= -255.797642  E_total= -446.096207 
W_seq=209.947131

DISTANCE=1.000
E_alpha= -400.240682  E_beta= -255.797378  E_total= -618.155701 
W_seq=37.882359

DISTANCE=1.500
E_alpha= -400.239577  E_beta= -255.796996  E_total= -675.890428 
W_seq=-19.853855

DISTANCE=2.000
E_alpha= -400.239742  E_beta= -255.797249  E_total= -682.458713 
W_seq=-26.421722

DISTANCE=2.500
E_alpha= -400.239273  E_beta= -255.797402  E_total= -679.216806 
W_seq=-23.180131

DISTANCE=3.000
E_alpha= -400.239081  E_beta= -255.797285  E_total=
W_seq=656.036366

DISTANCE=3.500
E_alpha= -400.239172  E_beta= -255.797596  E_total= -667.085090 
W_seq=-11.048322

DISTANCE=4.000
E_alpha= -400.239328  E_beta= -255.796916  E_total= -662.674307 
W_seq=-6.638063

DISTANCE=4.500
E_alpha= -400.239002  E_beta= -255.797730  E_total= -659.819102 
W_seq=-3.782370

DISTANCE=5.000
E_alpha= -400.238941  E_beta= -255.797130  E_total= -658.094581 
W_seq=-2.058510

DISTANCE=5.500
E_alpha= -400.238706  E_beta= -255.797233  E_total= -657.115857 
W_seq=-1.079918

DISTANCE=6.000
E_alpha= -400.238652  E_beta= -255.797195  E_total= -656.601301 
W_seq=-0.565454

DISTANCE=6.500
E_alpha= -400.239100  E_beta= -255.797132  E_total= -656.353843 
W_seq=-0.317611

DISTANCE=7.000
E_alpha= -400.239042  E_beta= -255.796682  E_total= -656.240263 
W_seq=-0.204539

DISTANCE=7.500
E_alpha= -400.239253  E_beta= -255.796852  E_total= -656.186600 
W_seq=-0.150495

DISTANCE=8.000
E_alpha= -400.238613  E_beta= -255.796988  E_total= -656.156777 
W_seq=-0.121176

DISTANCE=8.500
E_alpha= -400.238932  E_beta= -255.797014  E_total= -656.138980 
W_seq=-0.103034

DISTANCE=9.000
E_alpha= -400.239036  E_beta= -255.797049  E_total= -656.126513 
W_seq=-0.090428

DISTANCE=9.500
E_alpha= -400.238473  E_beta= -255.797135  E_total= -656.116687 
W_seq=-0.081079

DISTANCE=10.000
E_alpha= -400.238715  E_beta= -255.797523  E_total= -656.109942 
W_seq=-0.073704

