Distance=1.550
 running on   16 total cores
 distrk:  each k-point on    8 cores,    2 groups
 distr:  one band on    4 cores,    2 groups
 using from now: INCAR     
 vasp.5.4.4.18Apr17-6-g9f103f2a35 (build Nov 27 2019 20:08:17) complex          
  
 POSCAR found type information on POSCAR  Ti
 POSCAR found :  1 types and      48 ions
 scaLAPACK will be used

 ----------------------------------------------------------------------------- 
|                                                                             |
|           W    W    AA    RRRRR   N    N  II  N    N   GGGG   !!!           |
|           W    W   A  A   R    R  NN   N  II  NN   N  G    G  !!!           |
|           W    W  A    A  R    R  N N  N  II  N N  N  G       !!!           |
|           W WW W  AAAAAA  RRRRR   N  N N  II  N  N N  G  GGG   !            |
|           WW  WW  A    A  R   R   N   NN  II  N   NN  G    G                |
|           W    W  A    A  R    R  N    N  II  N    N   GGGG   !!!           |
|                                                                             |
|      You have enabled k-point parallelism (KPAR>1).                         |
|      This developmental code was originally  written by Paul Kent at ORNL,  |
|      and carefully double checked in Vienna.                                |
|      GW as well as linear response parallelism added by Martijn Marsman     |
|      and Georg Kresse.                                                      |
|      Carefully verify results versus KPAR=1.                                |
|      Report problems to Paul Kent and Vienna.                               |
|                                                                             |
 ----------------------------------------------------------------------------- 

 LDA part: xc-table for Pade appr. of Perdew
 POSCAR found type information on POSCAR  Ti
 POSCAR found :  1 types and      48 ions
 POSCAR, INCAR and KPOINTS ok, starting setup
 FFT: planning ...
 WAVECAR not read
 WARNING: random wavefunctions but no delay for mixing, default for NELMDL
 entering main loop
       N       E                     dE             d eps       ncg     rms          rms(c)
DAV:   1     0.864764605708E+03    0.86476E+03   -0.53866E+04  2196   0.110E+03
DAV:   2    -0.248710634903E+03   -0.11135E+04   -0.10723E+04  2196   0.243E+02
DAV:   3    -0.416277729828E+03   -0.16757E+03   -0.15792E+03  3400   0.847E+01
DAV:   4    -0.429978328960E+03   -0.13701E+02   -0.12877E+02  3448   0.264E+01
DAV:   5    -0.430917220763E+03   -0.93889E+00   -0.89676E+00  3648   0.558E+00    0.784E+01
DAV:   6    -0.571021865278E+03   -0.14010E+03   -0.25357E+03  4218   0.777E+01    0.116E+02
DAV:   7    -0.380001062788E+03    0.19102E+03   -0.44050E+03  3998   0.153E+02    0.396E+01
DAV:   8    -0.364355597416E+03    0.15645E+02   -0.49897E+02  3416   0.594E+01    0.318E+01
DAV:   9    -0.358209897642E+03    0.61457E+01   -0.40457E+01  3744   0.117E+01    0.253E+01
DAV:  10    -0.357905689975E+03    0.30421E+00   -0.22184E+00  3576   0.277E+00    0.248E+01
DAV:  11    -0.359417879236E+03   -0.15122E+01   -0.49871E-01  3456   0.186E+00    0.262E+01
DAV:  12    -0.344930220874E+03    0.14488E+02   -0.81671E+01  3064   0.270E+01    0.924E+00
DAV:  13    -0.344974450619E+03   -0.44230E-01   -0.54272E+00  2952   0.612E+00    0.559E+00
DAV:  14    -0.344782296989E+03    0.19215E+00   -0.32002E+00  3576   0.370E+00    0.316E+00
DAV:  15    -0.344739659736E+03    0.42637E-01   -0.75492E-01  3392   0.237E+00    0.811E-01
DAV:  16    -0.344744972487E+03   -0.53128E-02   -0.76928E-02  3304   0.771E-01    0.832E-01
DAV:  17    -0.344736218793E+03    0.87537E-02   -0.35912E-02  2864   0.543E-01    0.503E-01
DAV:  18    -0.344741277166E+03   -0.50584E-02   -0.35367E-02  3392   0.524E-01    0.322E-01
DAV:  19    -0.344752439691E+03   -0.11163E-01   -0.52863E-02  3360   0.544E-01    0.493E-01
DAV:  20    -0.344751824435E+03    0.61526E-03   -0.89518E-03  3384   0.232E-01    0.257E-01
DAV:  21    -0.344753386129E+03   -0.15617E-02   -0.82610E-03  3432   0.202E-01    0.495E-02
DAV:  22    -0.344754725263E+03   -0.13391E-02   -0.65780E-04  2616   0.597E-02    0.362E-02
DAV:  23    -0.344754914873E+03   -0.18961E-03   -0.21059E-04  3392   0.312E-02    0.275E-02
DAV:  24    -0.344754925179E+03   -0.10306E-04   -0.53190E-05  3040   0.203E-02    0.143E-02
DAV:  25    -0.344754927462E+03   -0.22832E-05   -0.11995E-05  1968   0.103E-02
   1 F= -.34475493E+03 E0= -.34469992E+03  d E =-.110024E+00
 running on   16 total cores
 distrk:  each k-point on    8 cores,    2 groups
 distr:  one band on    4 cores,    2 groups
 using from now: INCAR     
 vasp.5.4.4.18Apr17-6-g9f103f2a35 (build Nov 27 2019 20:08:17) complex          
  
 POSCAR found type information on POSCAR  Ti
 POSCAR found :  1 types and      54 ions
 scaLAPACK will be used

 ----------------------------------------------------------------------------- 
|                                                                             |
|           W    W    AA    RRRRR   N    N  II  N    N   GGGG   !!!           |
|           W    W   A  A   R    R  NN   N  II  NN   N  G    G  !!!           |
|           W    W  A    A  R    R  N N  N  II  N N  N  G       !!!           |
|           W WW W  AAAAAA  RRRRR   N  N N  II  N  N N  G  GGG   !            |
|           WW  WW  A    A  R   R   N   NN  II  N   NN  G    G                |
|           W    W  A    A  R    R  N    N  II  N    N   GGGG   !!!           |
|                                                                             |
|      You have enabled k-point parallelism (KPAR>1).                         |
|      This developmental code was originally  written by Paul Kent at ORNL,  |
|      and carefully double checked in Vienna.                                |
|      GW as well as linear response parallelism added by Martijn Marsman     |
|      and Georg Kresse.                                                      |
|      Carefully verify results versus KPAR=1.                                |
|      Report problems to Paul Kent and Vienna.                               |
|                                                                             |
 ----------------------------------------------------------------------------- 

 LDA part: xc-table for Pade appr. of Perdew
 POSCAR found type information on POSCAR  Ti
 POSCAR found :  1 types and      54 ions
 POSCAR, INCAR and KPOINTS ok, starting setup
 FFT: planning ...
 WAVECAR not read
 WARNING: random wavefunctions but no delay for mixing, default for NELMDL
 entering main loop
       N       E                     dE             d eps       ncg     rms          rms(c)
DAV:   1     0.108330451404E+04    0.10833E+04   -0.62637E+04  1632   0.114E+03
DAV:   2    -0.283459954605E+03   -0.13668E+04   -0.13163E+04  1632   0.255E+02
DAV:   3    -0.486478378604E+03   -0.20302E+03   -0.18886E+03  2392   0.928E+01
DAV:   4    -0.501353720244E+03   -0.14875E+02   -0.13674E+02  2392   0.294E+01
DAV:   5    -0.502314750175E+03   -0.96103E+00   -0.91259E+00  2680   0.575E+00    0.978E+01
DAV:   6    -0.791002785032E+03   -0.28869E+03   -0.43507E+03  3096   0.951E+01    0.133E+02
DAV:   7    -0.433608589842E+03    0.35739E+03   -0.64584E+03  3008   0.165E+02    0.442E+01
DAV:   8    -0.421110222851E+03    0.12498E+02   -0.72064E+02  2416   0.749E+01    0.426E+01
DAV:   9    -0.412915658139E+03    0.81946E+01   -0.50557E+01  2712   0.140E+01    0.345E+01
DAV:  10    -0.415363263574E+03   -0.24476E+01   -0.43846E+00  2704   0.380E+00    0.365E+01
DAV:  11    -0.399402064708E+03    0.15961E+02   -0.27557E+01  2440   0.140E+01    0.178E+01
DAV:  12    -0.397078617297E+03    0.23234E+01   -0.28031E+00  2464   0.445E+00    0.135E+01
DAV:  13    -0.394033505655E+03    0.30451E+01   -0.11285E+01  2400   0.935E+00    0.298E+00
DAV:  14    -0.393940448072E+03    0.93058E-01   -0.21214E+00  2424   0.393E+00    0.271E+00
DAV:  15    -0.393835178866E+03    0.10527E+00   -0.10220E+00  2480   0.245E+00    0.145E+00
DAV:  16    -0.393844789946E+03   -0.96111E-02   -0.57304E-02  2568   0.534E-01    0.119E+00
DAV:  17    -0.393839603876E+03    0.51861E-02   -0.55450E-02  2416   0.626E-01    0.407E-01
DAV:  18    -0.393843820263E+03   -0.42164E-02   -0.21594E-02  2528   0.311E-01    0.275E-01
DAV:  19    -0.393863888010E+03   -0.20068E-01   -0.58446E-02  1984   0.714E-01    0.777E-01
DAV:  20    -0.393856699990E+03    0.71880E-02   -0.22247E-02  2000   0.438E-01    0.283E-01
DAV:  21    -0.393857707809E+03   -0.10078E-02   -0.76611E-03  2384   0.219E-01    0.505E-02
DAV:  22    -0.393858525926E+03   -0.81812E-03   -0.15484E-03  2296   0.109E-01    0.107E-01
DAV:  23    -0.393858454144E+03    0.71782E-04   -0.80679E-04  2136   0.756E-02    0.326E-02
DAV:  24    -0.393858462801E+03   -0.86570E-05   -0.38705E-05  2008   0.123E-02    0.125E-02
DAV:  25    -0.393858461688E+03    0.11126E-05   -0.50096E-06  1232   0.632E-03
   1 F= -.39385846E+03 E0= -.39377153E+03  d E =-.173865E+00
 running on   16 total cores
 distrk:  each k-point on    8 cores,    2 groups
 distr:  one band on    4 cores,    2 groups
 using from now: INCAR     
 vasp.5.4.4.18Apr17-6-g9f103f2a35 (build Nov 27 2019 20:08:17) complex          
  
 POSCAR found type information on POSCAR  Ti
 POSCAR found :  1 types and     102 ions
 scaLAPACK will be used

 ----------------------------------------------------------------------------- 
|                                                                             |
|           W    W    AA    RRRRR   N    N  II  N    N   GGGG   !!!           |
|           W    W   A  A   R    R  NN   N  II  NN   N  G    G  !!!           |
|           W    W  A    A  R    R  N N  N  II  N N  N  G       !!!           |
|           W WW W  AAAAAA  RRRRR   N  N N  II  N  N N  G  GGG   !            |
|           WW  WW  A    A  R   R   N   NN  II  N   NN  G    G                |
|           W    W  A    A  R    R  N    N  II  N    N   GGGG   !!!           |
|                                                                             |
|      You have enabled k-point parallelism (KPAR>1).                         |
|      This developmental code was originally  written by Paul Kent at ORNL,  |
|      and carefully double checked in Vienna.                                |
|      GW as well as linear response parallelism added by Martijn Marsman     |
|      and Georg Kresse.                                                      |
|      Carefully verify results versus KPAR=1.                                |
|      Report problems to Paul Kent and Vienna.                               |
|                                                                             |
 ----------------------------------------------------------------------------- 

 LDA part: xc-table for Pade appr. of Perdew
 POSCAR found type information on POSCAR  Ti
 POSCAR found :  1 types and     102 ions
 POSCAR, INCAR and KPOINTS ok, starting setup
 FFT: planning ...
 WAVECAR not read
 WARNING: random wavefunctions but no delay for mixing, default for NELMDL
 entering main loop
       N       E                     dE             d eps       ncg     rms          rms(c)
DAV:   1     0.181167589610E+04    0.18117E+04   -0.11752E+05  6656   0.125E+03
DAV:   2    -0.510978980787E+03   -0.23227E+04   -0.22563E+04  6656   0.280E+02
DAV:   3    -0.854199378102E+03   -0.34322E+03   -0.31920E+03  9648   0.992E+01
DAV:   4    -0.883027636311E+03   -0.28828E+02   -0.26992E+02  9784   0.296E+01
DAV:   5    -0.884221567361E+03   -0.11939E+01   -0.11573E+01  9520   0.504E+00    0.128E+02
DAV:   6    -0.194534756677E+04   -0.10611E+04   -0.10930E+04 13240   0.149E+02    0.173E+02
DAV:   7    -0.910040357271E+03    0.10353E+04   -0.14269E+04 12192   0.165E+02    0.771E+01
DAV:   8    -0.814588218941E+03    0.95452E+02   -0.25761E+03 10304   0.124E+02    0.676E+01
DAV:   9    -0.806911203918E+03    0.76770E+01   -0.98945E+02 11512   0.738E+01    0.541E+01
DAV:  10    -0.795273758190E+03    0.11637E+02   -0.21407E+02 11232   0.358E+01    0.491E+01
DAV:  11    -0.779918352174E+03    0.15355E+02   -0.50807E+01 10360   0.166E+01    0.403E+01
DAV:  12    -0.777598837115E+03    0.23195E+01   -0.59387E+00  9536   0.497E+00    0.372E+01
DAV:  13    -0.770106658505E+03    0.74922E+01   -0.15774E+01  9648   0.886E+00    0.258E+01
DAV:  14    -0.764710740587E+03    0.53959E+01   -0.15735E+01  9832   0.880E+00    0.174E+01
DAV:  15    -0.763252777460E+03    0.14580E+01   -0.55231E+00  9984   0.539E+00    0.143E+01
DAV:  16    -0.762446163925E+03    0.80661E+00   -0.28087E+00  9848   0.390E+00    0.124E+01
DAV:  17    -0.761882835051E+03    0.56333E+00   -0.25600E+00 10056   0.352E+00    0.109E+01
DAV:  18    -0.760825504335E+03    0.10573E+01   -0.30234E+00  9792   0.406E+00    0.714E+00
DAV:  19    -0.760337692983E+03    0.48781E+00   -0.21001E+00  9464   0.355E+00    0.404E+00
DAV:  20    -0.760165344803E+03    0.17235E+00   -0.13981E+00  8832   0.287E+00    0.179E+00
DAV:  21    -0.760128583437E+03    0.36761E-01   -0.39637E-01  9624   0.151E+00    0.922E-01
DAV:  22    -0.760122891695E+03    0.56917E-02   -0.72513E-02  9808   0.623E-01    0.684E-01
DAV:  23    -0.760120602348E+03    0.22893E-02   -0.14627E-02  9840   0.266E-01    0.447E-01
DAV:  24    -0.760120805067E+03   -0.20272E-03   -0.19018E-02  9904   0.289E-01    0.343E-01
DAV:  25    -0.760120292328E+03    0.51274E-03   -0.12370E-02 10016   0.242E-01    0.240E-01
DAV:  26    -0.760119803835E+03    0.48849E-03   -0.65764E-03 10008   0.175E-01    0.171E-01
DAV:  27    -0.760119537088E+03    0.26675E-03   -0.18343E-03 10032   0.990E-02    0.112E-01
DAV:  28    -0.760119451640E+03    0.85448E-04   -0.69336E-04 10144   0.543E-02    0.665E-02
DAV:  29    -0.760119423367E+03    0.28274E-04   -0.27188E-04 10128   0.342E-02    0.312E-02
DAV:  30    -0.760119427688E+03   -0.43213E-05   -0.95925E-05  9224   0.221E-02    0.301E-02
DAV:  31    -0.760119422995E+03    0.46926E-05   -0.23006E-05  6368   0.120E-02
   1 F= -.76011942E+03 E0= -.76001117E+03  d E =-.216502E+00
Distance=1.600
 running on   16 total cores
 distrk:  each k-point on    8 cores,    2 groups
 distr:  one band on    4 cores,    2 groups
 using from now: INCAR     
 vasp.5.4.4.18Apr17-6-g9f103f2a35 (build Nov 27 2019 20:08:17) complex          
  
 POSCAR found type information on POSCAR  Ti
 POSCAR found :  1 types and      48 ions
 scaLAPACK will be used

 ----------------------------------------------------------------------------- 
|                                                                             |
|           W    W    AA    RRRRR   N    N  II  N    N   GGGG   !!!           |
|           W    W   A  A   R    R  NN   N  II  NN   N  G    G  !!!           |
|           W    W  A    A  R    R  N N  N  II  N N  N  G       !!!           |
|           W WW W  AAAAAA  RRRRR   N  N N  II  N  N N  G  GGG   !            |
|           WW  WW  A    A  R   R   N   NN  II  N   NN  G    G                |
|           W    W  A    A  R    R  N    N  II  N    N   GGGG   !!!           |
|                                                                             |
|      You have enabled k-point parallelism (KPAR>1).                         |
|      This developmental code was originally  written by Paul Kent at ORNL,  |
|      and carefully double checked in Vienna.                                |
|      GW as well as linear response parallelism added by Martijn Marsman     |
|      and Georg Kresse.                                                      |
|      Carefully verify results versus KPAR=1.                                |
|      Report problems to Paul Kent and Vienna.                               |
|                                                                             |
 ----------------------------------------------------------------------------- 

 LDA part: xc-table for Pade appr. of Perdew
 POSCAR found type information on POSCAR  Ti
 POSCAR found :  1 types and      48 ions
 POSCAR, INCAR and KPOINTS ok, starting setup
 FFT: planning ...
 WAVECAR not read
 entering main loop
       N       E                     dE             d eps       ncg     rms          rms(c)
DAV:   1     0.866882579119E+03    0.86688E+03   -0.53832E+04  2196   0.110E+03
DAV:   2    -0.249590987310E+03   -0.11165E+04   -0.10757E+04  2196   0.244E+02
DAV:   3    -0.416295799703E+03   -0.16670E+03   -0.15727E+03  3408   0.846E+01
DAV:   4    -0.430007632892E+03   -0.13712E+02   -0.12866E+02  3464   0.263E+01
DAV:   5    -0.430908564017E+03   -0.90093E+00   -0.85402E+00  3608   0.550E+00    0.784E+01
DAV:   6    -0.569998799650E+03   -0.13909E+03   -0.25250E+03  4228   0.777E+01    0.115E+02
DAV:   7    -0.380225708605E+03    0.18977E+03   -0.43888E+03  3974   0.154E+02    0.397E+01
DAV:   8    -0.364233193153E+03    0.15993E+02   -0.49902E+02  3408   0.591E+01    0.318E+01
DAV:   9    -0.358237713699E+03    0.59955E+01   -0.41344E+01  3712   0.118E+01    0.254E+01
DAV:  10    -0.357978460529E+03    0.25925E+00   -0.24211E+00  3560   0.287E+00    0.249E+01
DAV:  11    -0.359911348968E+03   -0.19329E+01   -0.80134E-01  3384   0.247E+00    0.267E+01
DAV:  12    -0.345005595268E+03    0.14906E+02   -0.83157E+01  3024   0.276E+01    0.973E+00
DAV:  13    -0.345024741803E+03   -0.19147E-01   -0.54038E+00  2936   0.616E+00    0.603E+00
DAV:  14    -0.344764098400E+03    0.26064E+00   -0.34977E+00  3592   0.382E+00    0.290E+00
DAV:  15    -0.344742764423E+03    0.21334E-01   -0.68063E-01  3248   0.227E+00    0.826E-01
DAV:  16    -0.344747585270E+03   -0.48208E-02   -0.75885E-02  3480   0.677E-01    0.908E-01
DAV:  17    -0.344735817370E+03    0.11768E-01   -0.62104E-02  2824   0.756E-01    0.403E-01
DAV:  18    -0.344741812169E+03   -0.59948E-02   -0.24297E-02  3448   0.405E-01    0.359E-01
DAV:  19    -0.344753158190E+03   -0.11346E-01   -0.67265E-02  3384   0.599E-01    0.572E-01
DAV:  20    -0.344751986207E+03    0.11720E-02   -0.96534E-03  3320   0.235E-01    0.300E-01
DAV:  21    -0.344753759387E+03   -0.17732E-02   -0.12001E-02  3408   0.245E-01    0.718E-02
DAV:  22    -0.344754717273E+03   -0.95789E-03   -0.11582E-03  3152   0.792E-02    0.406E-02
DAV:  23    -0.344754888850E+03   -0.17158E-03   -0.19255E-04  3264   0.385E-02    0.256E-02
DAV:  24    -0.344754954314E+03   -0.65464E-04   -0.47637E-05  2584   0.188E-02    0.181E-02
DAV:  25    -0.344754960472E+03   -0.61580E-05   -0.15445E-05  2040   0.101E-02    0.114E-02
DAV:  26    -0.344754961517E+03   -0.10445E-05   -0.82839E-06  1848   0.549E-03
   1 F= -.34475496E+03 E0= -.34469994E+03  d E =-.110039E+00
 running on   16 total cores
 distrk:  each k-point on    8 cores,    2 groups
 distr:  one band on    4 cores,    2 groups
 using from now: INCAR     
 vasp.5.4.4.18Apr17-6-g9f103f2a35 (build Nov 27 2019 20:08:17) complex          
  
 POSCAR found type information on POSCAR  Ti
 POSCAR found :  1 types and      54 ions
 scaLAPACK will be used

 ----------------------------------------------------------------------------- 
|                                                                             |
|           W    W    AA    RRRRR   N    N  II  N    N   GGGG   !!!           |
|           W    W   A  A   R    R  NN   N  II  NN   N  G    G  !!!           |
|           W    W  A    A  R    R  N N  N  II  N N  N  G       !!!           |
|           W WW W  AAAAAA  RRRRR   N  N N  II  N  N N  G  GGG   !            |
|           WW  WW  A    A  R   R   N   NN  II  N   NN  G    G                |
|           W    W  A    A  R    R  N    N  II  N    N   GGGG   !!!           |
|                                                                             |
|      You have enabled k-point parallelism (KPAR>1).                         |
|      This developmental code was originally  written by Paul Kent at ORNL,  |
|      and carefully double checked in Vienna.                                |
|      GW as well as linear response parallelism added by Martijn Marsman     |
|      and Georg Kresse.                                                      |
|      Carefully verify results versus KPAR=1.                                |
|      Report problems to Paul Kent and Vienna.                               |
|                                                                             |
 ----------------------------------------------------------------------------- 

 LDA part: xc-table for Pade appr. of Perdew
 POSCAR found type information on POSCAR  Ti
 POSCAR found :  1 types and      54 ions
 POSCAR, INCAR and KPOINTS ok, starting setup
 FFT: planning ...
 WAVECAR not read
 WARNING: random wavefunctions but no delay for mixing, default for NELMDL
 entering main loop
       N       E                     dE             d eps       ncg     rms          rms(c)
DAV:   1     0.108386846871E+04    0.10839E+04   -0.62575E+04  1632   0.114E+03
DAV:   2    -0.284281975984E+03   -0.13682E+04   -0.13179E+04  1632   0.255E+02
DAV:   3    -0.486430664854E+03   -0.20215E+03   -0.18750E+03  2376   0.927E+01
DAV:   4    -0.501266120942E+03   -0.14835E+02   -0.13680E+02  2408   0.293E+01
DAV:   5    -0.502306375304E+03   -0.10403E+01   -0.97899E+00  2688   0.585E+00    0.978E+01
DAV:   6    -0.790602735006E+03   -0.28830E+03   -0.43426E+03  3088   0.950E+01    0.133E+02
DAV:   7    -0.433059518410E+03    0.35754E+03   -0.64930E+03  3000   0.165E+02    0.442E+01
DAV:   8    -0.421164484237E+03    0.11895E+02   -0.72858E+02  2408   0.756E+01    0.427E+01
DAV:   9    -0.413258927454E+03    0.79056E+01   -0.48747E+01  2760   0.136E+01    0.347E+01
DAV:  10    -0.415852759031E+03   -0.25938E+01   -0.35953E+00  2592   0.375E+00    0.369E+01
DAV:  11    -0.397214763797E+03    0.18638E+02   -0.43013E+01  2432   0.173E+01    0.135E+01
DAV:  12    -0.396222620648E+03    0.99214E+00   -0.20028E+00  2424   0.365E+00    0.113E+01
DAV:  13    -0.394074792505E+03    0.21478E+01   -0.79732E+00  2368   0.780E+00    0.355E+00
DAV:  14    -0.393995111968E+03    0.79681E-01   -0.24515E+00  2456   0.394E+00    0.320E+00
DAV:  15    -0.393831884502E+03    0.16323E+00   -0.88884E-01  2464   0.238E+00    0.153E+00
DAV:  16    -0.393843516347E+03   -0.11632E-01   -0.13222E-01  2744   0.833E-01    0.128E+00
DAV:  17    -0.393846477466E+03   -0.29611E-02   -0.34674E-02  2208   0.400E-01    0.769E-01
DAV:  18    -0.393841964945E+03    0.45125E-02   -0.43477E-02  2496   0.492E-01    0.268E-01
DAV:  19    -0.393868018594E+03   -0.26054E-01   -0.12300E-01  2288   0.935E-01    0.103E+00
DAV:  20    -0.393855439992E+03    0.12579E-01   -0.46197E-02  2184   0.590E-01    0.326E-01
DAV:  21    -0.393856953021E+03   -0.15130E-02   -0.11339E-02  2472   0.252E-01    0.531E-02
DAV:  22    -0.393857916318E+03   -0.96330E-03   -0.76170E-04  2032   0.755E-02    0.622E-02
DAV:  23    -0.393858099786E+03   -0.18347E-03   -0.13318E-04  1968   0.279E-02    0.413E-02
DAV:  24    -0.393858129442E+03   -0.29656E-04   -0.34838E-05  1840   0.141E-02    0.192E-02
DAV:  25    -0.393858128327E+03    0.11154E-05   -0.49442E-05  2232   0.162E-02
   1 F= -.39385813E+03 E0= -.39377119E+03  d E =-.173886E+00
 running on   16 total cores
 distrk:  each k-point on    8 cores,    2 groups
 distr:  one band on    4 cores,    2 groups
 using from now: INCAR     
 vasp.5.4.4.18Apr17-6-g9f103f2a35 (build Nov 27 2019 20:08:17) complex          
  
 POSCAR found type information on POSCAR  Ti
 POSCAR found :  1 types and     102 ions
 scaLAPACK will be used

 ----------------------------------------------------------------------------- 
|                                                                             |
|           W    W    AA    RRRRR   N    N  II  N    N   GGGG   !!!           |
|           W    W   A  A   R    R  NN   N  II  NN   N  G    G  !!!           |
|           W    W  A    A  R    R  N N  N  II  N N  N  G       !!!           |
|           W WW W  AAAAAA  RRRRR   N  N N  II  N  N N  G  GGG   !            |
|           WW  WW  A    A  R   R   N   NN  II  N   NN  G    G                |
|           W    W  A    A  R    R  N    N  II  N    N   GGGG   !!!           |
|                                                                             |
|      You have enabled k-point parallelism (KPAR>1).                         |
|      This developmental code was originally  written by Paul Kent at ORNL,  |
|      and carefully double checked in Vienna.                                |
|      GW as well as linear response parallelism added by Martijn Marsman     |
|      and Georg Kresse.                                                      |
|      Carefully verify results versus KPAR=1.                                |
|      Report problems to Paul Kent and Vienna.                               |
|                                                                             |
 ----------------------------------------------------------------------------- 

 LDA part: xc-table for Pade appr. of Perdew
 POSCAR found type information on POSCAR  Ti
 POSCAR found :  1 types and     102 ions
 POSCAR, INCAR and KPOINTS ok, starting setup
 FFT: planning ...
 WAVECAR not read
 WARNING: random wavefunctions but no delay for mixing, default for NELMDL
 entering main loop
       N       E                     dE             d eps       ncg     rms          rms(c)
DAV:   1     0.180387556476E+04    0.18039E+04   -0.11738E+05  6656   0.125E+03
DAV:   2    -0.511451198943E+03   -0.23153E+04   -0.22495E+04  6656   0.279E+02
DAV:   3    -0.855029450272E+03   -0.34358E+03   -0.31999E+03  9688   0.987E+01
DAV:   4    -0.883706021656E+03   -0.28677E+02   -0.26883E+02  9840   0.295E+01
DAV:   5    -0.884883655162E+03   -0.11776E+01   -0.11413E+01  9544   0.493E+00    0.128E+02
DAV:   6    -0.195419131927E+04   -0.10693E+04   -0.10949E+04 13224   0.150E+02    0.168E+02
DAV:   7    -0.910448948432E+03    0.10437E+04   -0.13975E+04 12144   0.163E+02    0.770E+01
DAV:   8    -0.807138251827E+03    0.10331E+03   -0.25281E+03 10352   0.123E+02    0.638E+01
DAV:   9    -0.807933445790E+03   -0.79519E+00   -0.90430E+02 11448   0.682E+01    0.534E+01
DAV:  10    -0.797290169167E+03    0.10643E+02   -0.20537E+02 11208   0.344E+01    0.488E+01
DAV:  11    -0.782148574065E+03    0.15142E+02   -0.50589E+01 10344   0.164E+01    0.400E+01
DAV:  12    -0.779743988692E+03    0.24046E+01   -0.56808E+00  9616   0.481E+00    0.370E+01
DAV:  13    -0.771873638917E+03    0.78703E+01   -0.12892E+01  9472   0.814E+00    0.256E+01
DAV:  14    -0.766546927098E+03    0.53267E+01   -0.16303E+01  9912   0.893E+00    0.170E+01
DAV:  15    -0.764828583892E+03    0.17183E+01   -0.65327E+00 10000   0.589E+00    0.133E+01
DAV:  16    -0.764134697145E+03    0.69389E+00   -0.29040E+00  9872   0.402E+00    0.117E+01
DAV:  17    -0.763570384674E+03    0.56431E+00   -0.18835E+00  9912   0.305E+00    0.102E+01
DAV:  18    -0.762595024646E+03    0.97536E+00   -0.29249E+00  9664   0.389E+00    0.648E+00
DAV:  19    -0.762101619538E+03    0.49341E+00   -0.26499E+00  9272   0.398E+00    0.285E+00
DAV:  20    -0.762042840347E+03    0.58779E-01   -0.10299E+00  9480   0.249E+00    0.162E+00
DAV:  21    -0.762009780324E+03    0.33060E-01   -0.35672E-01  9848   0.136E+00    0.833E-01
DAV:  22    -0.762001662648E+03    0.81177E-02   -0.84706E-02  9856   0.674E-01    0.498E-01
DAV:  23    -0.762000174159E+03    0.14885E-02   -0.28818E-02 10168   0.371E-01    0.361E-01
DAV:  24    -0.761999817928E+03    0.35623E-03   -0.17393E-02 10112   0.268E-01    0.291E-01
DAV:  25    -0.761999556500E+03    0.26143E-03   -0.12877E-02 10144   0.259E-01    0.250E-01
DAV:  26    -0.761998828490E+03    0.72801E-03   -0.64274E-03  9960   0.173E-01    0.132E-01
DAV:  27    -0.761998692067E+03    0.13642E-03   -0.18514E-03 10008   0.911E-02    0.951E-02
DAV:  28    -0.761998582986E+03    0.10908E-03   -0.71873E-04 10360   0.592E-02    0.501E-02
DAV:  29    -0.761998552276E+03    0.30710E-04   -0.27397E-04 10080   0.343E-02    0.266E-02
DAV:  30    -0.761998551852E+03    0.42482E-06   -0.75564E-05  9296   0.202E-02    0.265E-02
DAV:  31    -0.761998549500E+03    0.23515E-05   -0.24105E-05  6352   0.123E-02
   1 F= -.76199855E+03 E0= -.76188916E+03  d E =-.218774E+00
Distance=1.650
 running on   16 total cores
 distrk:  each k-point on    8 cores,    2 groups
 distr:  one band on    4 cores,    2 groups
 using from now: INCAR     
 vasp.5.4.4.18Apr17-6-g9f103f2a35 (build Nov 27 2019 20:08:17) complex          
  
 POSCAR found type information on POSCAR  Ti
 POSCAR found :  1 types and      48 ions
 scaLAPACK will be used

 ----------------------------------------------------------------------------- 
|                                                                             |
|           W    W    AA    RRRRR   N    N  II  N    N   GGGG   !!!           |
|           W    W   A  A   R    R  NN   N  II  NN   N  G    G  !!!           |
|           W    W  A    A  R    R  N N  N  II  N N  N  G       !!!           |
|           W WW W  AAAAAA  RRRRR   N  N N  II  N  N N  G  GGG   !            |
|           WW  WW  A    A  R   R   N   NN  II  N   NN  G    G                |
|           W    W  A    A  R    R  N    N  II  N    N   GGGG   !!!           |
|                                                                             |
|      You have enabled k-point parallelism (KPAR>1).                         |
|      This developmental code was originally  written by Paul Kent at ORNL,  |
|      and carefully double checked in Vienna.                                |
|      GW as well as linear response parallelism added by Martijn Marsman     |
|      and Georg Kresse.                                                      |
|      Carefully verify results versus KPAR=1.                                |
|      Report problems to Paul Kent and Vienna.                               |
|                                                                             |
 ----------------------------------------------------------------------------- 

 LDA part: xc-table for Pade appr. of Perdew
 POSCAR found type information on POSCAR  Ti
 POSCAR found :  1 types and      48 ions
 POSCAR, INCAR and KPOINTS ok, starting setup
 FFT: planning ...
 WAVECAR not read
 entering main loop
       N       E                     dE             d eps       ncg     rms          rms(c)
DAV:   1     0.869530137973E+03    0.86953E+03   -0.54012E+04  2196   0.110E+03
DAV:   2    -0.248501636295E+03   -0.11180E+04   -0.10762E+04  2196   0.243E+02
DAV:   3    -0.416094913990E+03   -0.16759E+03   -0.15784E+03  3400   0.847E+01
DAV:   4    -0.429947972228E+03   -0.13853E+02   -0.13050E+02  3432   0.262E+01
DAV:   5    -0.430904814561E+03   -0.95684E+00   -0.90748E+00  3624   0.563E+00    0.784E+01
DAV:   6    -0.570003869527E+03   -0.13910E+03   -0.25097E+03  4222   0.776E+01    0.115E+02
DAV:   7    -0.380374987681E+03    0.18963E+03   -0.43935E+03  3990   0.154E+02    0.398E+01
DAV:   8    -0.364340783876E+03    0.16034E+02   -0.50277E+02  3400   0.595E+01    0.318E+01
DAV:   9    -0.358287808858E+03    0.60530E+01   -0.40752E+01  3752   0.117E+01    0.254E+01
DAV:  10    -0.357950028332E+03    0.33778E+00   -0.21402E+00  3600   0.276E+00    0.249E+01
DAV:  11    -0.359134030535E+03   -0.11840E+01   -0.36029E-01  3488   0.148E+00    0.259E+01
DAV:  12    -0.344932485489E+03    0.14202E+02   -0.81341E+01  3056   0.269E+01    0.927E+00
DAV:  13    -0.344970389011E+03   -0.37904E-01   -0.57867E+00  2952   0.636E+00    0.541E+00
DAV:  14    -0.344779279758E+03    0.19111E+00   -0.31271E+00  3584   0.372E+00    0.296E+00
DAV:  15    -0.344740648315E+03    0.38631E-01   -0.64950E-01  3408   0.221E+00    0.801E-01
DAV:  16    -0.344746639200E+03   -0.59909E-02   -0.70752E-02  3280   0.735E-01    0.835E-01
DAV:  17    -0.344737985231E+03    0.86540E-02   -0.38232E-02  2960   0.560E-01    0.589E-01
DAV:  18    -0.344741399351E+03   -0.34141E-02   -0.45523E-02  3392   0.609E-01    0.329E-01
DAV:  19    -0.344751163271E+03   -0.97639E-02   -0.48526E-02  3342   0.521E-01    0.475E-01
DAV:  20    -0.344751417184E+03   -0.25391E-03   -0.77440E-03  3376   0.213E-01    0.258E-01
DAV:  21    -0.344753035022E+03   -0.16178E-02   -0.82031E-03  3404   0.206E-01    0.595E-02
DAV:  22    -0.344754553770E+03   -0.15187E-02   -0.72349E-04  2632   0.660E-02    0.387E-02
DAV:  23    -0.344754779124E+03   -0.22535E-03   -0.25669E-04  3512   0.343E-02    0.341E-02
DAV:  24    -0.344754801034E+03   -0.21910E-04   -0.65836E-05  3160   0.235E-02    0.169E-02
DAV:  25    -0.344754808434E+03   -0.74005E-05   -0.15473E-05  2128   0.125E-02    0.102E-02
DAV:  26    -0.344754810172E+03   -0.17382E-05   -0.20408E-05  2344   0.120E-02
   1 F= -.34475481E+03 E0= -.34469977E+03  d E =-.110074E+00
 running on   16 total cores
 distrk:  each k-point on    8 cores,    2 groups
 distr:  one band on    4 cores,    2 groups
 using from now: INCAR     
 vasp.5.4.4.18Apr17-6-g9f103f2a35 (build Nov 27 2019 20:08:17) complex          
  
 POSCAR found type information on POSCAR  Ti
 POSCAR found :  1 types and      54 ions
 scaLAPACK will be used

 ----------------------------------------------------------------------------- 
|                                                                             |
|           W    W    AA    RRRRR   N    N  II  N    N   GGGG   !!!           |
|           W    W   A  A   R    R  NN   N  II  NN   N  G    G  !!!           |
|           W    W  A    A  R    R  N N  N  II  N N  N  G       !!!           |
|           W WW W  AAAAAA  RRRRR   N  N N  II  N  N N  G  GGG   !            |
|           WW  WW  A    A  R   R   N   NN  II  N   NN  G    G                |
|           W    W  A    A  R    R  N    N  II  N    N   GGGG   !!!           |
|                                                                             |
|      You have enabled k-point parallelism (KPAR>1).                         |
|      This developmental code was originally  written by Paul Kent at ORNL,  |
|      and carefully double checked in Vienna.                                |
|      GW as well as linear response parallelism added by Martijn Marsman     |
|      and Georg Kresse.                                                      |
|      Carefully verify results versus KPAR=1.                                |
|      Report problems to Paul Kent and Vienna.                               |
|                                                                             |
 ----------------------------------------------------------------------------- 

 LDA part: xc-table for Pade appr. of Perdew
 POSCAR found type information on POSCAR  Ti
 POSCAR found :  1 types and      54 ions
 POSCAR, INCAR and KPOINTS ok, starting setup
 FFT: planning ...
 WAVECAR not read
 WARNING: random wavefunctions but no delay for mixing, default for NELMDL
 entering main loop
       N       E                     dE             d eps       ncg     rms          rms(c)
DAV:   1     0.109049294765E+04    0.10905E+04   -0.62501E+04  1632   0.114E+03
DAV:   2    -0.282352601611E+03   -0.13728E+04   -0.13224E+04  1632   0.255E+02
DAV:   3    -0.486373883677E+03   -0.20402E+03   -0.18934E+03  2376   0.928E+01
DAV:   4    -0.501308162821E+03   -0.14934E+02   -0.13807E+02  2424   0.296E+01
DAV:   5    -0.502314628431E+03   -0.10065E+01   -0.95170E+00  2720   0.576E+00    0.979E+01
DAV:   6    -0.788430176939E+03   -0.28612E+03   -0.43276E+03  3080   0.949E+01    0.133E+02
DAV:   7    -0.434007960768E+03    0.35442E+03   -0.65015E+03  2968   0.165E+02    0.442E+01
DAV:   8    -0.421305928248E+03    0.12702E+02   -0.72217E+02  2376   0.749E+01    0.427E+01
DAV:   9    -0.413585265543E+03    0.77207E+01   -0.48819E+01  2744   0.137E+01    0.349E+01
DAV:  10    -0.416257960412E+03   -0.26727E+01   -0.35303E+00  2608   0.376E+00    0.371E+01
DAV:  11    -0.397539803594E+03    0.18718E+02   -0.41471E+01  2432   0.170E+01    0.142E+01
DAV:  12    -0.396453444213E+03    0.10864E+01   -0.20470E+00  2432   0.374E+00    0.119E+01
DAV:  13    -0.394084319178E+03    0.23691E+01   -0.93052E+00  2384   0.832E+00    0.359E+00
DAV:  14    -0.394053449516E+03    0.30870E-01   -0.31784E+00  2488   0.437E+00    0.362E+00
DAV:  15    -0.393843378762E+03    0.21007E+00   -0.86563E-01  2440   0.241E+00    0.172E+00
DAV:  16    -0.393849820587E+03   -0.64418E-02   -0.33352E-01  2680   0.125E+00    0.145E+00
DAV:  17    -0.393849029134E+03    0.79145E-03   -0.40149E-02  2320   0.525E-01    0.876E-01
DAV:  18    -0.393842021388E+03    0.70077E-02   -0.10037E-01  2520   0.758E-01    0.321E-01
DAV:  19    -0.393865849079E+03   -0.23828E-01   -0.75021E-02  2352   0.728E-01    0.102E+00
DAV:  20    -0.393853655876E+03    0.12193E-01   -0.68603E-02  2208   0.715E-01    0.139E-01
DAV:  21    -0.393856901828E+03   -0.32460E-02   -0.81235E-03  2600   0.187E-01    0.131E-01
DAV:  22    -0.393857638346E+03   -0.73652E-03   -0.16016E-03  2328   0.946E-02    0.378E-02
DAV:  23    -0.393857858955E+03   -0.22061E-03   -0.13491E-04  2104   0.244E-02    0.181E-02
DAV:  24    -0.393857921422E+03   -0.62467E-04   -0.52801E-05  1928   0.218E-02    0.182E-02
DAV:  25    -0.393857917157E+03    0.42649E-05   -0.17269E-05  1616   0.124E-02
   1 F= -.39385792E+03 E0= -.39377099E+03  d E =-.173863E+00
 running on   16 total cores
 distrk:  each k-point on    8 cores,    2 groups
 distr:  one band on    4 cores,    2 groups
 using from now: INCAR     
 vasp.5.4.4.18Apr17-6-g9f103f2a35 (build Nov 27 2019 20:08:17) complex          
  
 POSCAR found type information on POSCAR  Ti
 POSCAR found :  1 types and     102 ions
 scaLAPACK will be used

 ----------------------------------------------------------------------------- 
|                                                                             |
|           W    W    AA    RRRRR   N    N  II  N    N   GGGG   !!!           |
|           W    W   A  A   R    R  NN   N  II  NN   N  G    G  !!!           |
|           W    W  A    A  R    R  N N  N  II  N N  N  G       !!!           |
|           W WW W  AAAAAA  RRRRR   N  N N  II  N  N N  G  GGG   !            |
|           WW  WW  A    A  R   R   N   NN  II  N   NN  G    G                |
|           W    W  A    A  R    R  N    N  II  N    N   GGGG   !!!           |
|                                                                             |
|      You have enabled k-point parallelism (KPAR>1).                         |
|      This developmental code was originally  written by Paul Kent at ORNL,  |
|      and carefully double checked in Vienna.                                |
|      GW as well as linear response parallelism added by Martijn Marsman     |
|      and Georg Kresse.                                                      |
|      Carefully verify results versus KPAR=1.                                |
|      Report problems to Paul Kent and Vienna.                               |
|                                                                             |
 ----------------------------------------------------------------------------- 

 LDA part: xc-table for Pade appr. of Perdew
 POSCAR found type information on POSCAR  Ti
 POSCAR found :  1 types and     102 ions
 POSCAR, INCAR and KPOINTS ok, starting setup
 FFT: planning ...
 WAVECAR not read
 WARNING: random wavefunctions but no delay for mixing, default for NELMDL
 entering main loop
       N       E                     dE             d eps       ncg     rms          rms(c)
DAV:   1     0.179405676379E+04    0.17941E+04   -0.11728E+05  6656   0.125E+03
DAV:   2    -0.512841102597E+03   -0.23069E+04   -0.22416E+04  6656   0.279E+02
DAV:   3    -0.855718478871E+03   -0.34288E+03   -0.31944E+03  9720   0.982E+01
DAV:   4    -0.884550263556E+03   -0.28832E+02   -0.27010E+02  9864   0.294E+01
DAV:   5    -0.885736786982E+03   -0.11865E+01   -0.11510E+01  9560   0.488E+00    0.128E+02
DAV:   6    -0.196430273650E+04   -0.10786E+04   -0.10995E+04 13192   0.151E+02    0.163E+02
DAV:   7    -0.911621623857E+03    0.10527E+04   -0.13618E+04 12080   0.161E+02    0.774E+01
DAV:   8    -0.800883313263E+03    0.11074E+03   -0.25551E+03 10432   0.124E+02    0.596E+01
DAV:   9    -0.804458887543E+03   -0.35756E+01   -0.83144E+02 11312   0.625E+01    0.517E+01
DAV:  10    -0.799247746660E+03    0.52111E+01   -0.18596E+02 11184   0.317E+01    0.483E+01
DAV:  11    -0.784378387300E+03    0.14869E+02   -0.47334E+01 10480   0.164E+01    0.399E+01
DAV:  12    -0.781121039887E+03    0.32573E+01   -0.68159E+00 10152   0.539E+00    0.363E+01
DAV:  13    -0.773076758455E+03    0.80443E+01   -0.98379E+00  9064   0.729E+00    0.254E+01
DAV:  14    -0.767252317466E+03    0.58244E+01   -0.21106E+01 10064   0.992E+00    0.152E+01
DAV:  15    -0.765614699275E+03    0.16376E+01   -0.62366E+00  9968   0.585E+00    0.116E+01
DAV:  16    -0.765213003979E+03    0.40170E+00   -0.15992E+00  9896   0.304E+00    0.106E+01
DAV:  17    -0.764991940580E+03    0.22106E+00   -0.15329E+00 10160   0.260E+00    0.101E+01
DAV:  18    -0.763817920462E+03    0.11740E+01   -0.38942E+00  8952   0.462E+00    0.546E+00
DAV:  19    -0.763520732011E+03    0.29719E+00   -0.22753E+00 10040   0.347E+00    0.306E+00
DAV:  20    -0.763440266644E+03    0.80465E-01   -0.12032E+00  8992   0.264E+00    0.145E+00
DAV:  21    -0.763409692061E+03    0.30575E-01   -0.28396E-01  9824   0.126E+00    0.665E-01
DAV:  22    -0.763405714100E+03    0.39780E-02   -0.70213E-02 10080   0.603E-01    0.446E-01
DAV:  23    -0.763407189082E+03   -0.14750E-02   -0.42625E-02 10232   0.439E-01    0.448E-01
DAV:  24    -0.763403869555E+03    0.33195E-02   -0.26659E-02  9968   0.357E-01    0.220E-01
DAV:  25    -0.763403679267E+03    0.19029E-03   -0.88971E-03 10152   0.217E-01    0.181E-01
DAV:  26    -0.763403134750E+03    0.54452E-03   -0.40521E-03 10344   0.140E-01    0.884E-02
DAV:  27    -0.763403092834E+03    0.41916E-04   -0.12652E-03 10080   0.788E-02    0.622E-02
DAV:  28    -0.763403077735E+03    0.15099E-04   -0.51586E-04 10296   0.497E-02    0.557E-02
DAV:  29    -0.763403031509E+03    0.46226E-04   -0.31154E-04 10104   0.383E-02    0.358E-02
DAV:  30    -0.763403017524E+03    0.13985E-04   -0.18050E-04  9864   0.312E-02    0.346E-02
DAV:  31    -0.763403006655E+03    0.10869E-04   -0.51430E-05  8472   0.154E-02    0.215E-02
DAV:  32    -0.763403002095E+03    0.45599E-05   -0.12760E-05  4440   0.966E-03
   1 F= -.76340300E+03 E0= -.76329256E+03  d E =-.220876E+00
Distance=1.700
 running on   16 total cores
 distrk:  each k-point on    8 cores,    2 groups
 distr:  one band on    4 cores,    2 groups
 using from now: INCAR     
 vasp.5.4.4.18Apr17-6-g9f103f2a35 (build Nov 27 2019 20:08:17) complex          
  
 POSCAR found type information on POSCAR  Ti
 POSCAR found :  1 types and      48 ions
 scaLAPACK will be used

 ----------------------------------------------------------------------------- 
|                                                                             |
|           W    W    AA    RRRRR   N    N  II  N    N   GGGG   !!!           |
|           W    W   A  A   R    R  NN   N  II  NN   N  G    G  !!!           |
|           W    W  A    A  R    R  N N  N  II  N N  N  G       !!!           |
|           W WW W  AAAAAA  RRRRR   N  N N  II  N  N N  G  GGG   !            |
|           WW  WW  A    A  R   R   N   NN  II  N   NN  G    G                |
|           W    W  A    A  R    R  N    N  II  N    N   GGGG   !!!           |
|                                                                             |
|      You have enabled k-point parallelism (KPAR>1).                         |
|      This developmental code was originally  written by Paul Kent at ORNL,  |
|      and carefully double checked in Vienna.                                |
|      GW as well as linear response parallelism added by Martijn Marsman     |
|      and Georg Kresse.                                                      |
|      Carefully verify results versus KPAR=1.                                |
|      Report problems to Paul Kent and Vienna.                               |
|                                                                             |
 ----------------------------------------------------------------------------- 

 LDA part: xc-table for Pade appr. of Perdew
 POSCAR found type information on POSCAR  Ti
 POSCAR found :  1 types and      48 ions
 POSCAR, INCAR and KPOINTS ok, starting setup
 FFT: planning ...
 WAVECAR not read
 entering main loop
       N       E                     dE             d eps       ncg     rms          rms(c)
DAV:   1     0.871465283894E+03    0.87147E+03   -0.53810E+04  2196   0.110E+03
DAV:   2    -0.248342062288E+03   -0.11198E+04   -0.10786E+04  2196   0.244E+02
DAV:   3    -0.416258455653E+03   -0.16792E+03   -0.15851E+03  3408   0.848E+01
DAV:   4    -0.429992594677E+03   -0.13734E+02   -0.12911E+02  3464   0.264E+01
DAV:   5    -0.430909733224E+03   -0.91714E+00   -0.87441E+00  3600   0.552E+00    0.784E+01
DAV:   6    -0.569710968546E+03   -0.13880E+03   -0.25117E+03  4224   0.776E+01    0.116E+02
DAV:   7    -0.380949310159E+03    0.18876E+03   -0.44218E+03  3998   0.154E+02    0.399E+01
DAV:   8    -0.364356102099E+03    0.16593E+02   -0.50023E+02  3424   0.597E+01    0.318E+01
DAV:   9    -0.358341651601E+03    0.60145E+01   -0.40534E+01  3720   0.116E+01    0.254E+01
DAV:  10    -0.357889796508E+03    0.45186E+00   -0.21693E+00  3576   0.275E+00    0.248E+01
DAV:  11    -0.357531998325E+03    0.35780E+00   -0.25419E-01  3608   0.799E-01    0.244E+01
DAV:  12    -0.346156100330E+03    0.11376E+02   -0.29533E+01  2848   0.168E+01    0.103E+01
DAV:  13    -0.344872920368E+03    0.12832E+01   -0.17677E+01  3528   0.789E+00    0.593E+00
DAV:  14    -0.345015863176E+03   -0.14294E+00   -0.11990E+00  3704   0.217E+00    0.604E+00
DAV:  15    -0.345077098646E+03   -0.61235E-01   -0.25023E-01  3368   0.110E+00    0.720E+00
DAV:  16    -0.346177830051E+03   -0.11007E+01   -0.30732E+00  3656   0.310E+00    0.921E+00
DAV:  17    -0.345719553181E+03    0.45828E+00   -0.40198E+00  3424   0.567E+00    0.906E+00
DAV:  18    -0.345398992349E+03    0.32056E+00   -0.62099E-01  3656   0.150E+00    0.813E+00
DAV:  19    -0.345144963272E+03    0.25403E+00   -0.19553E-01  3392   0.118E+00    0.630E+00
DAV:  20    -0.344875878158E+03    0.26909E+00   -0.33220E-01  3528   0.128E+00    0.378E+00
DAV:  21    -0.344753479655E+03    0.12240E+00   -0.35451E-01  3576   0.130E+00    0.152E+00
DAV:  22    -0.344744575691E+03    0.89040E-02   -0.17545E-01  3336   0.113E+00    0.542E-01
DAV:  23    -0.344756076876E+03   -0.11501E-01   -0.25281E-02  3784   0.322E-01    0.928E-01
DAV:  24    -0.344756877486E+03   -0.80061E-03   -0.78091E-03  3240   0.228E-01    0.831E-01
DAV:  25    -0.344753547281E+03    0.33302E-02   -0.96310E-03  3048   0.279E-01    0.363E-01
DAV:  26    -0.344754497993E+03   -0.95071E-03   -0.89723E-03  3216   0.235E-01    0.115E-01
DAV:  27    -0.344754776965E+03   -0.27897E-03   -0.17462E-03  3472   0.852E-02    0.806E-02
DAV:  28    -0.344754808508E+03   -0.31543E-04   -0.11768E-04  3104   0.253E-02    0.725E-02
DAV:  29    -0.344754765911E+03    0.42597E-04   -0.26066E-04  2920   0.426E-02    0.271E-02
DAV:  30    -0.344754762609E+03    0.33013E-05   -0.72320E-05  3424   0.186E-02    0.307E-03
DAV:  31    -0.344754763119E+03   -0.50975E-06   -0.48016E-06  1656   0.655E-03
   1 F= -.34475476E+03 E0= -.34469974E+03  d E =-.110051E+00
 running on   16 total cores
 distrk:  each k-point on    8 cores,    2 groups
 distr:  one band on    4 cores,    2 groups
 using from now: INCAR     
 vasp.5.4.4.18Apr17-6-g9f103f2a35 (build Nov 27 2019 20:08:17) complex          
  
 POSCAR found type information on POSCAR  Ti
 POSCAR found :  1 types and      54 ions
 scaLAPACK will be used

 ----------------------------------------------------------------------------- 
|                                                                             |
|           W    W    AA    RRRRR   N    N  II  N    N   GGGG   !!!           |
|           W    W   A  A   R    R  NN   N  II  NN   N  G    G  !!!           |
|           W    W  A    A  R    R  N N  N  II  N N  N  G       !!!           |
|           W WW W  AAAAAA  RRRRR   N  N N  II  N  N N  G  GGG   !            |
|           WW  WW  A    A  R   R   N   NN  II  N   NN  G    G                |
|           W    W  A    A  R    R  N    N  II  N    N   GGGG   !!!           |
|                                                                             |
|      You have enabled k-point parallelism (KPAR>1).                         |
|      This developmental code was originally  written by Paul Kent at ORNL,  |
|      and carefully double checked in Vienna.                                |
|      GW as well as linear response parallelism added by Martijn Marsman     |
|      and Georg Kresse.                                                      |
|      Carefully verify results versus KPAR=1.                                |
|      Report problems to Paul Kent and Vienna.                               |
|                                                                             |
 ----------------------------------------------------------------------------- 

 LDA part: xc-table for Pade appr. of Perdew
 POSCAR found type information on POSCAR  Ti
 POSCAR found :  1 types and      54 ions
 POSCAR, INCAR and KPOINTS ok, starting setup
 FFT: planning ...
 WAVECAR not read
 WARNING: random wavefunctions but no delay for mixing, default for NELMDL
 entering main loop
       N       E                     dE             d eps       ncg     rms          rms(c)
DAV:   1     0.109122586389E+04    0.10912E+04   -0.62329E+04  1632   0.114E+03
DAV:   2    -0.283262705427E+03   -0.13745E+04   -0.13251E+04  1632   0.255E+02
DAV:   3    -0.486407999680E+03   -0.20315E+03   -0.18872E+03  2384   0.928E+01
DAV:   4    -0.501255313867E+03   -0.14847E+02   -0.13654E+02  2400   0.293E+01
DAV:   5    -0.502306922921E+03   -0.10516E+01   -0.99393E+00  2680   0.586E+00    0.979E+01
DAV:   6    -0.787363941120E+03   -0.28506E+03   -0.43047E+03  3104   0.948E+01    0.132E+02
DAV:   7    -0.434839910880E+03    0.35252E+03   -0.64959E+03  2984   0.165E+02    0.443E+01
DAV:   8    -0.421164022960E+03    0.13676E+02   -0.72483E+02  2400   0.750E+01    0.427E+01
DAV:   9    -0.413125186184E+03    0.80388E+01   -0.51537E+01  2760   0.139E+01    0.345E+01
DAV:  10    -0.415587523503E+03   -0.24623E+01   -0.42556E+00  2656   0.387E+00    0.366E+01
DAV:  11    -0.398974816689E+03    0.16613E+02   -0.31169E+01  2440   0.146E+01    0.171E+01
DAV:  12    -0.396947329354E+03    0.20275E+01   -0.25806E+00  2432   0.433E+00    0.132E+01
DAV:  13    -0.394079905640E+03    0.28674E+01   -0.10790E+01  2384   0.905E+00    0.330E+00
DAV:  14    -0.394023133048E+03    0.56773E-01   -0.29779E+00  2448   0.442E+00    0.335E+00
DAV:  15    -0.393841033851E+03    0.18210E+00   -0.86539E-01  2456   0.241E+00    0.156E+00
DAV:  16    -0.393841614300E+03   -0.58045E-03   -0.18006E-01  2712   0.928E-01    0.104E+00
DAV:  17    -0.393846737959E+03   -0.51237E-02   -0.32566E-02  2184   0.473E-01    0.739E-01
DAV:  18    -0.393842362379E+03    0.43756E-02   -0.46572E-02  2496   0.498E-01    0.256E-01
DAV:  19    -0.393867245906E+03   -0.24884E-01   -0.11513E-01  2312   0.911E-01    0.103E+00
DAV:  20    -0.393854628814E+03    0.12617E-01   -0.58820E-02  2248   0.648E-01    0.205E-01
DAV:  21    -0.393856985656E+03   -0.23568E-02   -0.11394E-02  2568   0.242E-01    0.138E-01
DAV:  22    -0.393857559675E+03   -0.57402E-03   -0.15102E-03  2328   0.902E-02    0.444E-02
DAV:  23    -0.393857866018E+03   -0.30634E-03   -0.20642E-04  2128   0.328E-02    0.261E-02
DAV:  24    -0.393857907995E+03   -0.41977E-04   -0.44602E-05  1824   0.198E-02    0.151E-02
DAV:  25    -0.393857905833E+03    0.21621E-05   -0.16923E-05  1576   0.117E-02
   1 F= -.39385791E+03 E0= -.39377098E+03  d E =-.173858E+00
 running on   16 total cores
 distrk:  each k-point on    8 cores,    2 groups
 distr:  one band on    4 cores,    2 groups
 using from now: INCAR     
 vasp.5.4.4.18Apr17-6-g9f103f2a35 (build Nov 27 2019 20:08:17) complex          
  
 POSCAR found type information on POSCAR  Ti
 POSCAR found :  1 types and     102 ions
 scaLAPACK will be used

 ----------------------------------------------------------------------------- 
|                                                                             |
|           W    W    AA    RRRRR   N    N  II  N    N   GGGG   !!!           |
|           W    W   A  A   R    R  NN   N  II  NN   N  G    G  !!!           |
|           W    W  A    A  R    R  N N  N  II  N N  N  G       !!!           |
|           W WW W  AAAAAA  RRRRR   N  N N  II  N  N N  G  GGG   !            |
|           WW  WW  A    A  R   R   N   NN  II  N   NN  G    G                |
|           W    W  A    A  R    R  N    N  II  N    N   GGGG   !!!           |
|                                                                             |
|      You have enabled k-point parallelism (KPAR>1).                         |
|      This developmental code was originally  written by Paul Kent at ORNL,  |
|      and carefully double checked in Vienna.                                |
|      GW as well as linear response parallelism added by Martijn Marsman     |
|      and Georg Kresse.                                                      |
|      Carefully verify results versus KPAR=1.                                |
|      Report problems to Paul Kent and Vienna.                               |
|                                                                             |
 ----------------------------------------------------------------------------- 

 LDA part: xc-table for Pade appr. of Perdew
 POSCAR found type information on POSCAR  Ti
 POSCAR found :  1 types and     102 ions
 POSCAR, INCAR and KPOINTS ok, starting setup
 FFT: planning ...
 WAVECAR not read
 WARNING: random wavefunctions but no delay for mixing, default for NELMDL
 entering main loop
       N       E                     dE             d eps       ncg     rms          rms(c)
DAV:   1     0.178695253960E+04    0.17870E+04   -0.11727E+05  6656   0.125E+03
DAV:   2    -0.514644718212E+03   -0.23016E+04   -0.22371E+04  6656   0.278E+02
DAV:   3    -0.856818468147E+03   -0.34217E+03   -0.31835E+03  9672   0.979E+01
DAV:   4    -0.885631614138E+03   -0.28813E+02   -0.26995E+02  9880   0.291E+01
DAV:   5    -0.886816171514E+03   -0.11846E+01   -0.11495E+01  9592   0.486E+00    0.127E+02
DAV:   6    -0.197509692513E+04   -0.10883E+04   -0.11061E+04 13160   0.154E+02    0.158E+02
DAV:   7    -0.915271358514E+03    0.10598E+04   -0.13285E+04 12024   0.159E+02    0.786E+01
DAV:   8    -0.796456525570E+03    0.11881E+03   -0.26487E+03 10472   0.125E+02    0.566E+01
DAV:   9    -0.801827775401E+03   -0.53712E+01   -0.80868E+02 11240   0.587E+01    0.502E+01
DAV:  10    -0.801340214322E+03    0.48756E+00   -0.17717E+02 11088   0.295E+01    0.479E+01
DAV:  11    -0.786494492393E+03    0.14846E+02   -0.45748E+01 10728   0.167E+01    0.400E+01
DAV:  12    -0.782319964392E+03    0.41745E+01   -0.92262E+00 10344   0.635E+00    0.360E+01
DAV:  13    -0.774975072163E+03    0.73449E+01   -0.73156E+00  8936   0.629E+00    0.266E+01
DAV:  14    -0.767858895822E+03    0.71162E+01   -0.22815E+01  9912   0.102E+01    0.140E+01
DAV:  15    -0.766351452883E+03    0.15074E+01   -0.65139E+00  9928   0.588E+00    0.106E+01
DAV:  16    -0.765944257312E+03    0.40720E+00   -0.15024E+00  9904   0.296E+00    0.960E+00
DAV:  17    -0.765996437226E+03   -0.52180E-01   -0.18149E+00 10240   0.276E+00    0.985E+00
DAV:  18    -0.764786472477E+03    0.12100E+01   -0.37099E+00  9080   0.453E+00    0.515E+00
DAV:  19    -0.764527295769E+03    0.25918E+00   -0.22635E+00 10048   0.343E+00    0.277E+00
DAV:  20    -0.764454926998E+03    0.72369E-01   -0.10331E+00  9352   0.243E+00    0.135E+00
DAV:  21    -0.764428100520E+03    0.26826E-01   -0.25641E-01  9776   0.116E+00    0.592E-01
DAV:  22    -0.764428806963E+03   -0.70644E-03   -0.73460E-02  9944   0.639E-01    0.602E-01
DAV:  23    -0.764427546382E+03    0.12606E-02   -0.43207E-02 10040   0.464E-01    0.540E-01
DAV:  24    -0.764424989481E+03    0.25569E-02   -0.24146E-02 10024   0.325E-01    0.368E-01
DAV:  25    -0.764424043793E+03    0.94569E-03   -0.12894E-02  9928   0.259E-01    0.181E-01
DAV:  26    -0.764423610135E+03    0.43366E-03   -0.36217E-03  9944   0.141E-01    0.800E-02
DAV:  27    -0.764423560030E+03    0.50106E-04   -0.12239E-03 10056   0.748E-02    0.647E-02
DAV:  28    -0.764423550155E+03    0.98744E-05   -0.69910E-04  9912   0.590E-02    0.563E-02
DAV:  29    -0.764423528037E+03    0.22119E-04   -0.22975E-04  9952   0.351E-02    0.477E-02
DAV:  30    -0.764423493360E+03    0.34677E-04   -0.16245E-04 10024   0.290E-02    0.211E-02
DAV:  31    -0.764423488072E+03    0.52882E-05   -0.44677E-05  8464   0.165E-02    0.982E-03
DAV:  32    -0.764423485736E+03    0.23356E-05   -0.68848E-06  4360   0.774E-03
   1 F= -.76442349E+03 E0= -.76431214E+03  d E =-.222684E+00
Distance=1.750
 running on   16 total cores
 distrk:  each k-point on    8 cores,    2 groups
 distr:  one band on    4 cores,    2 groups
 using from now: INCAR     
 vasp.5.4.4.18Apr17-6-g9f103f2a35 (build Nov 27 2019 20:08:17) complex          
  
 POSCAR found type information on POSCAR  Ti
 POSCAR found :  1 types and      48 ions
 scaLAPACK will be used

 ----------------------------------------------------------------------------- 
|                                                                             |
|           W    W    AA    RRRRR   N    N  II  N    N   GGGG   !!!           |
|           W    W   A  A   R    R  NN   N  II  NN   N  G    G  !!!           |
|           W    W  A    A  R    R  N N  N  II  N N  N  G       !!!           |
|           W WW W  AAAAAA  RRRRR   N  N N  II  N  N N  G  GGG   !            |
|           WW  WW  A    A  R   R   N   NN  II  N   NN  G    G                |
|           W    W  A    A  R    R  N    N  II  N    N   GGGG   !!!           |
|                                                                             |
|      You have enabled k-point parallelism (KPAR>1).                         |
|      This developmental code was originally  written by Paul Kent at ORNL,  |
|      and carefully double checked in Vienna.                                |
|      GW as well as linear response parallelism added by Martijn Marsman     |
|      and Georg Kresse.                                                      |
|      Carefully verify results versus KPAR=1.                                |
|      Report problems to Paul Kent and Vienna.                               |
|                                                                             |
 ----------------------------------------------------------------------------- 

 LDA part: xc-table for Pade appr. of Perdew
 POSCAR found type information on POSCAR  Ti
 POSCAR found :  1 types and      48 ions
 POSCAR, INCAR and KPOINTS ok, starting setup
 FFT: planning ...
 WAVECAR not read
 entering main loop
       N       E                     dE             d eps       ncg     rms          rms(c)
DAV:   1     0.872758627270E+03    0.87276E+03   -0.53965E+04  2196   0.110E+03
DAV:   2    -0.249365051919E+03   -0.11221E+04   -0.10799E+04  2196   0.244E+02
DAV:   3    -0.416229414799E+03   -0.16686E+03   -0.15735E+03  3376   0.847E+01
DAV:   4    -0.429982810142E+03   -0.13753E+02   -0.12926E+02  3472   0.263E+01
DAV:   5    -0.430909511943E+03   -0.92670E+00   -0.88084E+00  3616   0.558E+00    0.784E+01
DAV:   6    -0.568849497941E+03   -0.13794E+03   -0.25120E+03  4234   0.775E+01    0.116E+02
DAV:   7    -0.381181621439E+03    0.18767E+03   -0.44326E+03  4006   0.154E+02    0.399E+01
DAV:   8    -0.364456720691E+03    0.16725E+02   -0.50181E+02  3440   0.597E+01    0.318E+01
DAV:   9    -0.358380633932E+03    0.60761E+01   -0.40240E+01  3728   0.115E+01    0.255E+01
DAV:  10    -0.358016140981E+03    0.36449E+00   -0.22908E+00  3624   0.277E+00    0.250E+01
DAV:  11    -0.358477858143E+03   -0.46172E+00   -0.25177E-01  3696   0.781E-01    0.253E+01
DAV:  12    -0.345232041295E+03    0.13246E+02   -0.89552E+01  3264   0.272E+01    0.102E+01
DAV:  13    -0.344915519081E+03    0.31652E+00   -0.71665E+00  3152   0.706E+00    0.516E+00
DAV:  14    -0.344895538964E+03    0.19980E-01   -0.30327E+00  3488   0.396E+00    0.446E+00
DAV:  15    -0.344750709275E+03    0.14483E+00   -0.12277E+00  3390   0.297E+00    0.127E+00
DAV:  16    -0.344761201693E+03   -0.10492E-01   -0.16497E-01  3064   0.119E+00    0.111E+00
DAV:  17    -0.344755438983E+03    0.57627E-02   -0.40045E-02  3352   0.488E-01    0.113E+00
DAV:  18    -0.344740283853E+03    0.15155E-01   -0.11325E-01  3304   0.925E-01    0.321E-01
DAV:  19    -0.344744869884E+03   -0.45860E-02   -0.19158E-02  3616   0.325E-01    0.314E-01
DAV:  20    -0.344750331317E+03   -0.54614E-02   -0.94419E-03  3328   0.208E-01    0.258E-01
DAV:  21    -0.344751806760E+03   -0.14754E-02   -0.22455E-03  3168   0.131E-01    0.156E-01
DAV:  22    -0.344754182433E+03   -0.23757E-02   -0.32524E-03  2888   0.157E-01    0.537E-02
DAV:  23    -0.344754675372E+03   -0.49294E-03   -0.38593E-04  2832   0.531E-02    0.364E-02
DAV:  24    -0.344754824594E+03   -0.14922E-03   -0.22634E-04  3496   0.330E-02    0.463E-02
DAV:  25    -0.344754811786E+03    0.12808E-04   -0.98821E-05  3312   0.256E-02    0.224E-02
DAV:  26    -0.344754806512E+03    0.52744E-05   -0.14034E-05  1920   0.123E-02    0.116E-02
DAV:  27    -0.344754807003E+03   -0.49115E-06   -0.23911E-05  2536   0.980E-03
   1 F= -.34475481E+03 E0= -.34469977E+03  d E =-.110067E+00
 running on   16 total cores
 distrk:  each k-point on    8 cores,    2 groups
 distr:  one band on    4 cores,    2 groups
 using from now: INCAR     
 vasp.5.4.4.18Apr17-6-g9f103f2a35 (build Nov 27 2019 20:08:17) complex          
  
 POSCAR found type information on POSCAR  Ti
 POSCAR found :  1 types and      54 ions
 scaLAPACK will be used

 ----------------------------------------------------------------------------- 
|                                                                             |
|           W    W    AA    RRRRR   N    N  II  N    N   GGGG   !!!           |
|           W    W   A  A   R    R  NN   N  II  NN   N  G    G  !!!           |
|           W    W  A    A  R    R  N N  N  II  N N  N  G       !!!           |
|           W WW W  AAAAAA  RRRRR   N  N N  II  N  N N  G  GGG   !            |
|           WW  WW  A    A  R   R   N   NN  II  N   NN  G    G                |
|           W    W  A    A  R    R  N    N  II  N    N   GGGG   !!!           |
|                                                                             |
|      You have enabled k-point parallelism (KPAR>1).                         |
|      This developmental code was originally  written by Paul Kent at ORNL,  |
|      and carefully double checked in Vienna.                                |
|      GW as well as linear response parallelism added by Martijn Marsman     |
|      and Georg Kresse.                                                      |
|      Carefully verify results versus KPAR=1.                                |
|      Report problems to Paul Kent and Vienna.                               |
|                                                                             |
 ----------------------------------------------------------------------------- 

 LDA part: xc-table for Pade appr. of Perdew
 POSCAR found type information on POSCAR  Ti
 POSCAR found :  1 types and      54 ions
 POSCAR, INCAR and KPOINTS ok, starting setup
 FFT: planning ...
 WAVECAR not read
 WARNING: random wavefunctions but no delay for mixing, default for NELMDL
 entering main loop
       N       E                     dE             d eps       ncg     rms          rms(c)
DAV:   1     0.109043825041E+04    0.10904E+04   -0.62540E+04  1632   0.114E+03
DAV:   2    -0.284004517045E+03   -0.13744E+04   -0.13244E+04  1632   0.255E+02
DAV:   3    -0.486395440211E+03   -0.20239E+03   -0.18788E+03  2368   0.925E+01
DAV:   4    -0.501332564795E+03   -0.14937E+02   -0.13728E+02  2424   0.292E+01
DAV:   5    -0.502309021592E+03   -0.97646E+00   -0.92509E+00  2688   0.576E+00    0.978E+01
DAV:   6    -0.788089721058E+03   -0.28578E+03   -0.43203E+03  3104   0.948E+01    0.133E+02
DAV:   7    -0.434979940622E+03    0.35311E+03   -0.65084E+03  3008   0.166E+02    0.442E+01
DAV:   8    -0.421158025832E+03    0.13822E+02   -0.72301E+02  2416   0.750E+01    0.427E+01
DAV:   9    -0.413459315248E+03    0.76987E+01   -0.47970E+01  2744   0.132E+01    0.348E+01
DAV:  10    -0.416074781840E+03   -0.26155E+01   -0.41896E+00  2680   0.374E+00    0.370E+01
DAV:  11    -0.397518148907E+03    0.18557E+02   -0.40554E+01  2440   0.170E+01    0.143E+01
DAV:  12    -0.396298230726E+03    0.12199E+01   -0.22418E+00  2472   0.390E+00    0.116E+01
DAV:  13    -0.394047896013E+03    0.22503E+01   -0.83189E+00  2376   0.799E+00    0.349E+00
DAV:  14    -0.393979222278E+03    0.68674E-01   -0.21892E+00  2416   0.390E+00    0.311E+00
DAV:  15    -0.393833009040E+03    0.14621E+00   -0.10139E+00  2472   0.250E+00    0.161E+00
DAV:  16    -0.393843320917E+03   -0.10312E-01   -0.65472E-02  2552   0.600E-01    0.124E+00
DAV:  17    -0.393848137655E+03   -0.48167E-02   -0.37523E-02  2376   0.397E-01    0.786E-01
DAV:  18    -0.393842611414E+03    0.55262E-02   -0.59590E-02  2480   0.572E-01    0.209E-01
DAV:  19    -0.393867824315E+03   -0.25213E-01   -0.11249E-01  2264   0.911E-01    0.103E+00
DAV:  20    -0.393854719705E+03    0.13105E-01   -0.46674E-02  2208   0.589E-01    0.323E-01
DAV:  21    -0.393856310217E+03   -0.15905E-02   -0.78140E-03  2480   0.215E-01    0.635E-02
DAV:  22    -0.393857740605E+03   -0.14304E-02   -0.13130E-03  1896   0.111E-01    0.627E-02
DAV:  23    -0.393858003809E+03   -0.26320E-03   -0.21451E-04  2256   0.316E-02    0.599E-02
DAV:  24    -0.393858024874E+03   -0.21065E-04   -0.11355E-04  1960   0.328E-02    0.216E-02
DAV:  25    -0.393858019771E+03    0.51032E-05   -0.33783E-05  2040   0.157E-02    0.792E-03
DAV:  26    -0.393858018718E+03    0.10533E-05   -0.32870E-06  1136   0.471E-03
   1 F= -.39385802E+03 E0= -.39377108E+03  d E =-.173880E+00
 running on   16 total cores
 distrk:  each k-point on    8 cores,    2 groups
 distr:  one band on    4 cores,    2 groups
 using from now: INCAR     
 vasp.5.4.4.18Apr17-6-g9f103f2a35 (build Nov 27 2019 20:08:17) complex          
  
 POSCAR found type information on POSCAR  Ti
 POSCAR found :  1 types and     102 ions
 scaLAPACK will be used

 ----------------------------------------------------------------------------- 
|                                                                             |
|           W    W    AA    RRRRR   N    N  II  N    N   GGGG   !!!           |
|           W    W   A  A   R    R  NN   N  II  NN   N  G    G  !!!           |
|           W    W  A    A  R    R  N N  N  II  N N  N  G       !!!           |
|           W WW W  AAAAAA  RRRRR   N  N N  II  N  N N  G  GGG   !            |
|           WW  WW  A    A  R   R   N   NN  II  N   NN  G    G                |
|           W    W  A    A  R    R  N    N  II  N    N   GGGG   !!!           |
|                                                                             |
|      You have enabled k-point parallelism (KPAR>1).                         |
|      This developmental code was originally  written by Paul Kent at ORNL,  |
|      and carefully double checked in Vienna.                                |
|      GW as well as linear response parallelism added by Martijn Marsman     |
|      and Georg Kresse.                                                      |
|      Carefully verify results versus KPAR=1.                                |
|      Report problems to Paul Kent and Vienna.                               |
|                                                                             |
 ----------------------------------------------------------------------------- 

 LDA part: xc-table for Pade appr. of Perdew
 POSCAR found type information on POSCAR  Ti
 POSCAR found :  1 types and     102 ions
 POSCAR, INCAR and KPOINTS ok, starting setup
 FFT: planning ...
 WAVECAR not read
 WARNING: random wavefunctions but no delay for mixing, default for NELMDL
 entering main loop
       N       E                     dE             d eps       ncg     rms          rms(c)
DAV:   1     0.177560102746E+04    0.17756E+04   -0.11715E+05  6656   0.124E+03
DAV:   2    -0.516052894012E+03   -0.22917E+04   -0.22269E+04  6656   0.278E+02
DAV:   3    -0.858190362874E+03   -0.34214E+03   -0.31871E+03  9744   0.974E+01
DAV:   4    -0.886933853909E+03   -0.28743E+02   -0.26983E+02  9880   0.290E+01
DAV:   5    -0.888126027622E+03   -0.11922E+01   -0.11571E+01  9584   0.481E+00    0.127E+02
DAV:   6    -0.198446650755E+04   -0.10963E+04   -0.11109E+04 13120   0.156E+02    0.153E+02
DAV:   7    -0.922604595562E+03    0.10619E+04   -0.12982E+04 12016   0.157E+02    0.807E+01
DAV:   8    -0.793299423339E+03    0.12931E+03   -0.27999E+03 10544   0.128E+02    0.541E+01
DAV:   9    -0.800067796839E+03   -0.67684E+01   -0.80777E+02 11184   0.559E+01    0.486E+01
DAV:  10    -0.801388310511E+03   -0.13205E+01   -0.16506E+02 10976   0.266E+01    0.468E+01
DAV:  11    -0.788585305645E+03    0.12803E+02   -0.37629E+01 11120   0.159E+01    0.404E+01
DAV:  12    -0.783473972708E+03    0.51113E+01   -0.10065E+01 10392   0.672E+00    0.361E+01
DAV:  13    -0.777065475776E+03    0.64085E+01   -0.58137E+00  9016   0.552E+00    0.283E+01
DAV:  14    -0.768281142010E+03    0.87843E+01   -0.24101E+01  9720   0.106E+01    0.133E+01
DAV:  15    -0.766806938854E+03    0.14742E+01   -0.74115E+00 10112   0.610E+00    0.986E+00
DAV:  16    -0.766307051923E+03    0.49989E+00   -0.19723E+00  9968   0.337E+00    0.847E+00
DAV:  17    -0.766679237324E+03   -0.37219E+00   -0.24751E+00 10232   0.320E+00    0.954E+00
DAV:  18    -0.765557282514E+03    0.11220E+01   -0.27156E+00  9792   0.375E+00    0.538E+00
DAV:  19    -0.765208723084E+03    0.34856E+00   -0.26361E+00  9256   0.369E+00    0.226E+00
DAV:  20    -0.765208282508E+03    0.44058E-03   -0.10823E+00  9552   0.249E+00    0.193E+00
DAV:  21    -0.765144938817E+03    0.63344E-01   -0.33975E-01  9656   0.136E+00    0.767E-01
DAV:  22    -0.765144415079E+03    0.52374E-03   -0.12649E-01  8744   0.859E-01    0.774E-01
DAV:  23    -0.765143013798E+03    0.14013E-02   -0.40533E-02 10048   0.476E-01    0.702E-01
DAV:  24    -0.765139892146E+03    0.31217E-02   -0.34126E-02 10176   0.400E-01    0.511E-01
DAV:  25    -0.765138157185E+03    0.17350E-02   -0.24152E-02 10080   0.353E-01    0.270E-01
DAV:  26    -0.765137529511E+03    0.62767E-03   -0.86067E-03 10088   0.214E-01    0.175E-01
DAV:  27    -0.765137178672E+03    0.35084E-03   -0.24484E-03 10296   0.108E-01    0.112E-01
DAV:  28    -0.765137052209E+03    0.12646E-03   -0.11045E-03 10048   0.740E-02    0.628E-02
DAV:  29    -0.765137014795E+03    0.37415E-04   -0.47137E-04  9904   0.496E-02    0.437E-02
DAV:  30    -0.765136984507E+03    0.30288E-04   -0.22687E-04 10400   0.331E-02    0.278E-02
DAV:  31    -0.765136980828E+03    0.36794E-05   -0.11167E-04  9848   0.210E-02    0.214E-02
DAV:  32    -0.765136969415E+03    0.11412E-04   -0.40170E-05  7576   0.163E-02    0.126E-02
DAV:  33    -0.765136967394E+03    0.20216E-05   -0.10497E-05  4720   0.838E-03
   1 F= -.76513697E+03 E0= -.76502500E+03  d E =-.223932E+00
Distance=1.800
 running on   16 total cores
 distrk:  each k-point on    8 cores,    2 groups
 distr:  one band on    4 cores,    2 groups
 using from now: INCAR     
 vasp.5.4.4.18Apr17-6-g9f103f2a35 (build Nov 27 2019 20:08:17) complex          
  
 POSCAR found type information on POSCAR  Ti
 POSCAR found :  1 types and      48 ions
 scaLAPACK will be used

 ----------------------------------------------------------------------------- 
|                                                                             |
|           W    W    AA    RRRRR   N    N  II  N    N   GGGG   !!!           |
|           W    W   A  A   R    R  NN   N  II  NN   N  G    G  !!!           |
|           W    W  A    A  R    R  N N  N  II  N N  N  G       !!!           |
|           W WW W  AAAAAA  RRRRR   N  N N  II  N  N N  G  GGG   !            |
|           WW  WW  A    A  R   R   N   NN  II  N   NN  G    G                |
|           W    W  A    A  R    R  N    N  II  N    N   GGGG   !!!           |
|                                                                             |
|      You have enabled k-point parallelism (KPAR>1).                         |
|      This developmental code was originally  written by Paul Kent at ORNL,  |
|      and carefully double checked in Vienna.                                |
|      GW as well as linear response parallelism added by Martijn Marsman     |
|      and Georg Kresse.                                                      |
|      Carefully verify results versus KPAR=1.                                |
|      Report problems to Paul Kent and Vienna.                               |
|                                                                             |
 ----------------------------------------------------------------------------- 

 LDA part: xc-table for Pade appr. of Perdew
 POSCAR found type information on POSCAR  Ti
 POSCAR found :  1 types and      48 ions
 POSCAR, INCAR and KPOINTS ok, starting setup
 FFT: planning ...
 WAVECAR not read
 entering main loop
       N       E                     dE             d eps       ncg     rms          rms(c)
DAV:   1     0.872842838252E+03    0.87284E+03   -0.53921E+04  2196   0.110E+03
DAV:   2    -0.248782293655E+03   -0.11216E+04   -0.10802E+04  2196   0.243E+02
DAV:   3    -0.416434713194E+03   -0.16765E+03   -0.15842E+03  3416   0.846E+01
DAV:   4    -0.429996495082E+03   -0.13562E+02   -0.12748E+02  3448   0.263E+01
DAV:   5    -0.430904777058E+03   -0.90828E+00   -0.86039E+00  3584   0.557E+00    0.784E+01
DAV:   6    -0.568524961934E+03   -0.13762E+03   -0.25068E+03  4230   0.775E+01    0.116E+02
DAV:   7    -0.381775752725E+03    0.18675E+03   -0.44403E+03  4006   0.154E+02    0.400E+01
DAV:   8    -0.364489441942E+03    0.17286E+02   -0.50010E+02  3440   0.598E+01    0.318E+01
DAV:   9    -0.358438921821E+03    0.60505E+01   -0.40433E+01  3752   0.115E+01    0.255E+01
DAV:  10    -0.357955398261E+03    0.48352E+00   -0.21872E+00  3592   0.277E+00    0.249E+01
DAV:  11    -0.357362450280E+03    0.59295E+00   -0.28127E-01  3528   0.103E+00    0.242E+01
DAV:  12    -0.345239988445E+03    0.12122E+02   -0.38300E+01  2984   0.188E+01    0.781E+00
DAV:  13    -0.344904186591E+03    0.33580E+00   -0.10305E+01  3528   0.491E+00    0.448E+00
DAV:  14    -0.344918697360E+03   -0.14511E-01   -0.85858E-01  3472   0.228E+00    0.324E+00
DAV:  15    -0.344886789904E+03    0.31907E-01   -0.12981E+00  3208   0.299E+00    0.370E+00
DAV:  16    -0.344741188096E+03    0.14560E+00   -0.83665E-01  3496   0.210E+00    0.853E-01
DAV:  17    -0.344748881359E+03   -0.76933E-02   -0.78383E-02  3448   0.783E-01    0.839E-01
DAV:  18    -0.344739041595E+03    0.98398E-02   -0.53205E-02  3592   0.573E-01    0.290E-01
DAV:  19    -0.344744851625E+03   -0.58100E-02   -0.29343E-02  3680   0.324E-01    0.392E-01
DAV:  20    -0.344750450302E+03   -0.55987E-02   -0.13059E-02  2800   0.354E-01    0.369E-01
DAV:  21    -0.344750606323E+03   -0.15602E-03   -0.65224E-03  3280   0.212E-01    0.180E-01
DAV:  22    -0.344754074028E+03   -0.34677E-02   -0.37306E-03  3112   0.128E-01    0.106E-01
DAV:  23    -0.344754480369E+03   -0.40634E-03   -0.13022E-03  3704   0.688E-02    0.612E-02
DAV:  24    -0.344754760901E+03   -0.28053E-03   -0.44079E-04  2792   0.596E-02    0.644E-02
DAV:  25    -0.344754759153E+03    0.17482E-05   -0.17588E-04  3360   0.313E-02    0.284E-02
DAV:  26    -0.344754757276E+03    0.18770E-05   -0.49946E-05  2976   0.140E-02
   1 F= -.34475476E+03 E0= -.34469972E+03  d E =-.110065E+00
 running on   16 total cores
 distrk:  each k-point on    8 cores,    2 groups
 distr:  one band on    4 cores,    2 groups
 using from now: INCAR     
 vasp.5.4.4.18Apr17-6-g9f103f2a35 (build Nov 27 2019 20:08:17) complex          
  
 POSCAR found type information on POSCAR  Ti
 POSCAR found :  1 types and      54 ions
 scaLAPACK will be used

 ----------------------------------------------------------------------------- 
|                                                                             |
|           W    W    AA    RRRRR   N    N  II  N    N   GGGG   !!!           |
|           W    W   A  A   R    R  NN   N  II  NN   N  G    G  !!!           |
|           W    W  A    A  R    R  N N  N  II  N N  N  G       !!!           |
|           W WW W  AAAAAA  RRRRR   N  N N  II  N  N N  G  GGG   !            |
|           WW  WW  A    A  R   R   N   NN  II  N   NN  G    G                |
|           W    W  A    A  R    R  N    N  II  N    N   GGGG   !!!           |
|                                                                             |
|      You have enabled k-point parallelism (KPAR>1).                         |
|      This developmental code was originally  written by Paul Kent at ORNL,  |
|      and carefully double checked in Vienna.                                |
|      GW as well as linear response parallelism added by Martijn Marsman     |
|      and Georg Kresse.                                                      |
|      Carefully verify results versus KPAR=1.                                |
|      Report problems to Paul Kent and Vienna.                               |
|                                                                             |
 ----------------------------------------------------------------------------- 

 LDA part: xc-table for Pade appr. of Perdew
 POSCAR found type information on POSCAR  Ti
 POSCAR found :  1 types and      54 ions
 POSCAR, INCAR and KPOINTS ok, starting setup
 FFT: planning ...
 WAVECAR not read
 WARNING: random wavefunctions but no delay for mixing, default for NELMDL
 entering main loop
       N       E                     dE             d eps       ncg     rms          rms(c)
DAV:   1     0.109444163357E+04    0.10944E+04   -0.62371E+04  1632   0.114E+03
DAV:   2    -0.283775460862E+03   -0.13782E+04   -0.13276E+04  1632   0.255E+02
DAV:   3    -0.486476250934E+03   -0.20270E+03   -0.18845E+03  2384   0.926E+01
DAV:   4    -0.501325551116E+03   -0.14849E+02   -0.13671E+02  2432   0.292E+01
DAV:   5    -0.502314503912E+03   -0.98895E+00   -0.93747E+00  2712   0.577E+00    0.979E+01
DAV:   6    -0.786401677984E+03   -0.28409E+03   -0.42993E+03  3088   0.947E+01    0.132E+02
DAV:   7    -0.436759195336E+03    0.34964E+03   -0.65580E+03  2984   0.166E+02    0.444E+01
DAV:   8    -0.421309895992E+03    0.15449E+02   -0.71858E+02  2384   0.747E+01    0.426E+01
DAV:   9    -0.413567520711E+03    0.77424E+01   -0.48467E+01  2720   0.133E+01    0.348E+01
DAV:  10    -0.416371422055E+03   -0.28039E+01   -0.38950E+00  2696   0.387E+00    0.371E+01
DAV:  11    -0.397274236801E+03    0.19097E+02   -0.45166E+01  2440   0.176E+01    0.135E+01
DAV:  12    -0.396158706950E+03    0.11155E+01   -0.22974E+00  2472   0.396E+00    0.109E+01
DAV:  13    -0.394113467653E+03    0.20452E+01   -0.70875E+00  2376   0.736E+00    0.374E+00
DAV:  14    -0.394020144828E+03    0.93323E-01   -0.24643E+00  2504   0.399E+00    0.334E+00
DAV:  15    -0.393832700394E+03    0.18744E+00   -0.11351E+00  2448   0.262E+00    0.142E+00
DAV:  16    -0.393848861564E+03   -0.16161E-01   -0.13940E-01  2624   0.938E-01    0.133E+00
DAV:  17    -0.393843783744E+03    0.50778E-02   -0.47907E-02  2112   0.521E-01    0.611E-01
DAV:  18    -0.393843469612E+03    0.31413E-03   -0.39520E-02  2504   0.445E-01    0.239E-01
[...]
DAV:  34    -0.763267127564E+03    0.42203E-01   -0.13102E-01 10592   0.716E-01    0.150E+00
DAV:  35    -0.763262821848E+03    0.43057E-02   -0.60902E-02 10352   0.491E-01    0.152E+00
DAV:  36    -0.763256136970E+03    0.66849E-02   -0.37908E-02 10104   0.383E-01    0.104E+00
DAV:  37    -0.763253284987E+03    0.28520E-02   -0.23389E-02 10168   0.287E-01    0.529E-01
DAV:  38    -0.763250305072E+03    0.29799E-02   -0.14159E-02 10280   0.245E-01    0.263E-01
DAV:  39    -0.763250381267E+03   -0.76195E-04   -0.50580E-03 10608   0.143E-01    0.266E-01
DAV:  40    -0.763249959161E+03    0.42211E-03   -0.28913E-03 10320   0.109E-01    0.147E-01
DAV:  41    -0.763249884633E+03    0.74528E-04   -0.86618E-04 10160   0.610E-02    0.778E-02
DAV:  42    -0.763249846184E+03    0.38449E-04   -0.49331E-04 10280   0.470E-02    0.481E-02
DAV:  43    -0.763249841938E+03    0.42456E-05   -0.16092E-04 10040   0.240E-02    0.454E-02
DAV:  44    -0.763249836160E+03    0.57788E-05   -0.10575E-04 10280   0.202E-02    0.526E-02
DAV:  45    -0.763249834947E+03    0.12124E-05   -0.48672E-05  8784   0.131E-02
   1 F= -.76324983E+03 E0= -.76312589E+03  d E =-.247888E+00
Distance=2.450
 running on   16 total cores
 distrk:  each k-point on    8 cores,    2 groups
 distr:  one band on    4 cores,    2 groups
 using from now: INCAR     
 vasp.5.4.4.18Apr17-6-g9f103f2a35 (build Nov 27 2019 20:08:17) complex          
  
 POSCAR found type information on POSCAR  Ti
 POSCAR found :  1 types and      48 ions
 scaLAPACK will be used

 ----------------------------------------------------------------------------- 
|                                                                             |
|           W    W    AA    RRRRR   N    N  II  N    N   GGGG   !!!           |
|           W    W   A  A   R    R  NN   N  II  NN   N  G    G  !!!           |
|           W    W  A    A  R    R  N N  N  II  N N  N  G       !!!           |
|           W WW W  AAAAAA  RRRRR   N  N N  II  N  N N  G  GGG   !            |
|           WW  WW  A    A  R   R   N   NN  II  N   NN  G    G                |
|           W    W  A    A  R    R  N    N  II  N    N   GGGG   !!!           |
|                                                                             |
|      You have enabled k-point parallelism (KPAR>1).                         |
|      This developmental code was originally  written by Paul Kent at ORNL,  |
|      and carefully double checked in Vienna.                                |
|      GW as well as linear response parallelism added by Martijn Marsman     |
|      and Georg Kresse.                                                      |
|      Carefully verify results versus KPAR=1.                                |
|      Report problems to Paul Kent and Vienna.                               |
|                                                                             |
 ----------------------------------------------------------------------------- 

 LDA part: xc-table for Pade appr. of Perdew
 POSCAR found type information on POSCAR  Ti
 POSCAR found :  1 types and      48 ions
 POSCAR, INCAR and KPOINTS ok, starting setup
 FFT: planning ...
 WAVECAR not read
 entering main loop
       N       E                     dE             d eps       ncg     rms          rms(c)
DAV:   1     0.884153429683E+03    0.88415E+03   -0.53466E+04  2196   0.109E+03
DAV:   2    -0.247564288744E+03   -0.11317E+04   -0.10892E+04  2196   0.242E+02
DAV:   3    -0.416117665451E+03   -0.16855E+03   -0.15899E+03  3424   0.838E+01
DAV:   4    -0.429986096509E+03   -0.13868E+02   -0.13051E+02  3464   0.265E+01
DAV:   5    -0.430912974638E+03   -0.92688E+00   -0.88089E+00  3624   0.563E+00    0.784E+01
DAV:   6    -0.562801261558E+03   -0.13189E+03   -0.24372E+03  4222   0.767E+01    0.115E+02
DAV:   7    -0.386048154396E+03    0.17675E+03   -0.45107E+03  3982   0.156E+02    0.408E+01
DAV:   8    -0.364886901285E+03    0.21161E+02   -0.50356E+02  3416   0.604E+01    0.320E+01
DAV:   9    -0.358902398716E+03    0.59845E+01   -0.41471E+01  3720   0.116E+01    0.259E+01
DAV:  10    -0.356686881721E+03    0.22155E+01   -0.30312E+00  3624   0.358E+00    0.236E+01
DAV:  11    -0.351280383871E+03    0.54065E+01   -0.69269E+00  3464   0.780E+00    0.176E+01
DAV:  12    -0.344836345131E+03    0.64440E+01   -0.25666E+01  3384   0.135E+01    0.389E+00
DAV:  13    -0.345073611184E+03   -0.23727E+00   -0.19014E+00  3440   0.325E+00    0.368E+00
DAV:  14    -0.344979043795E+03    0.94567E-01   -0.30924E-01  3304   0.113E+00    0.374E+00
DAV:  15    -0.344748091513E+03    0.23095E+00   -0.16664E+00  3480   0.338E+00    0.837E-01
DAV:  16    -0.344742742199E+03    0.53493E-02   -0.12980E-01  3352   0.794E-01    0.373E-01
DAV:  17    -0.344745716838E+03   -0.29746E-02   -0.29039E-02  3264   0.459E-01    0.450E-01
DAV:  18    -0.344744871454E+03    0.84538E-03   -0.16748E-02  3256   0.358E-01    0.187E-01
DAV:  19    -0.344746654655E+03   -0.17832E-02   -0.22545E-03  2936   0.126E-01    0.103E-01
DAV:  20    -0.344750639774E+03   -0.39851E-02   -0.23791E-03  3008   0.104E-01    0.581E-02
DAV:  21    -0.344753038649E+03   -0.23989E-02   -0.74389E-04  2728   0.728E-02    0.257E-02
DAV:  22    -0.344754289383E+03   -0.12507E-02   -0.24973E-04  2686   0.358E-02    0.240E-02
DAV:  23    -0.344754640334E+03   -0.35095E-03   -0.21361E-04  3120   0.364E-02    0.253E-02
DAV:  24    -0.344754674818E+03   -0.34484E-04   -0.53443E-05  2860   0.173E-02    0.603E-03
DAV:  25    -0.344754682466E+03   -0.76484E-05   -0.10579E-05  1936   0.818E-03    0.283E-03
DAV:  26    -0.344754684166E+03   -0.17004E-05   -0.47849E-06  1760   0.337E-03
   1 F= -.34475468E+03 E0= -.34469968E+03  d E =-.110017E+00
 running on   16 total cores
 distrk:  each k-point on    8 cores,    2 groups
 distr:  one band on    4 cores,    2 groups
 using from now: INCAR     
 vasp.5.4.4.18Apr17-6-g9f103f2a35 (build Nov 27 2019 20:08:17) complex          
  
 POSCAR found type information on POSCAR  Ti
 POSCAR found :  1 types and      54 ions
 scaLAPACK will be used

 ----------------------------------------------------------------------------- 
|                                                                             |
|           W    W    AA    RRRRR   N    N  II  N    N   GGGG   !!!           |
|           W    W   A  A   R    R  NN   N  II  NN   N  G    G  !!!           |
|           W    W  A    A  R    R  N N  N  II  N N  N  G       !!!           |
|           W WW W  AAAAAA  RRRRR   N  N N  II  N  N N  G  GGG   !            |
|           WW  WW  A    A  R   R   N   NN  II  N   NN  G    G                |
|           W    W  A    A  R    R  N    N  II  N    N   GGGG   !!!           |
|                                                                             |
|      You have enabled k-point parallelism (KPAR>1).                         |
|      This developmental code was originally  written by Paul Kent at ORNL,  |
|      and carefully double checked in Vienna.                                |
|      GW as well as linear response parallelism added by Martijn Marsman     |
|      and Georg Kresse.                                                      |
|      Carefully verify results versus KPAR=1.                                |
|      Report problems to Paul Kent and Vienna.                               |
|                                                                             |
 ----------------------------------------------------------------------------- 

 LDA part: xc-table for Pade appr. of Perdew
 POSCAR found type information on POSCAR  Ti
 POSCAR found :  1 types and      54 ions
 POSCAR, INCAR and KPOINTS ok, starting setup
 FFT: planning ...
 WAVECAR not read
 WARNING: random wavefunctions but no delay for mixing, default for NELMDL
 entering main loop
       N       E                     dE             d eps       ncg     rms          rms(c)
DAV:   1     0.110285910827E+04    0.11029E+04   -0.62019E+04  1632   0.112E+03
DAV:   2    -0.283153195297E+03   -0.13860E+04   -0.13361E+04  1632   0.253E+02
DAV:   3    -0.486324499219E+03   -0.20317E+03   -0.18891E+03  2416   0.913E+01
DAV:   4    -0.501272784534E+03   -0.14948E+02   -0.13761E+02  2400   0.293E+01
DAV:   5    -0.502304208134E+03   -0.10314E+01   -0.97603E+00  2672   0.592E+00    0.978E+01
DAV:   6    -0.775416855533E+03   -0.27311E+03   -0.41680E+03  3104   0.936E+01    0.132E+02
DAV:   7    -0.442568144227E+03    0.33285E+03   -0.66746E+03  2976   0.168E+02    0.452E+01
DAV:   8    -0.422037892280E+03    0.20530E+02   -0.72361E+02  2400   0.759E+01    0.430E+01
DAV:   9    -0.414521335345E+03    0.75166E+01   -0.46966E+01  2776   0.129E+01    0.354E+01
DAV:  10    -0.418696592863E+03   -0.41753E+01   -0.56632E+00  2600   0.472E+00    0.388E+01
DAV:  11    -0.396095049355E+03    0.22602E+02   -0.61264E+01  2432   0.209E+01    0.110E+01
DAV:  12    -0.394960066979E+03    0.11350E+01   -0.38447E+00  2616   0.493E+00    0.750E+00
DAV:  13    -0.394080363309E+03    0.87970E+00   -0.19471E+00  2168   0.421E+00    0.415E+00
DAV:  14    -0.393881975762E+03    0.19839E+00   -0.85046E-01  2272   0.261E+00    0.230E+00
DAV:  15    -0.393850546036E+03    0.31430E-01   -0.24036E-01  2624   0.122E+00    0.136E+00
DAV:  16    -0.393860717014E+03   -0.10171E-01   -0.29529E-02  2512   0.458E-01    0.109E+00
DAV:  17    -0.393852554025E+03    0.81630E-02   -0.19011E-01  2504   0.873E-01    0.716E-01
DAV:  18    -0.393855130436E+03   -0.25764E-02   -0.15292E-01  2352   0.104E+00    0.691E-01
DAV:  19    -0.393852699434E+03    0.24310E-02   -0.13034E-02  2256   0.282E-01    0.467E-01
DAV:  20    -0.393852965025E+03   -0.26559E-03   -0.13911E-02  2048   0.360E-01    0.815E-02
DAV:  21    -0.393856166813E+03   -0.32018E-02   -0.36905E-03  1872   0.171E-01    0.128E-01
DAV:  22    -0.393856581342E+03   -0.41453E-03   -0.17440E-03  2192   0.118E-01    0.290E-02
DAV:  23    -0.393857767430E+03   -0.11861E-02   -0.79697E-04  2216   0.711E-02    0.781E-02
DAV:  24    -0.393857792100E+03   -0.24670E-04   -0.27214E-04  2360   0.421E-02    0.223E-02
DAV:  25    -0.393857816847E+03   -0.24747E-04   -0.66790E-05  2128   0.240E-02    0.131E-02
DAV:  26    -0.393857820179E+03   -0.33316E-05   -0.30803E-06  1200   0.514E-03
   1 F= -.39385782E+03 E0= -.39377088E+03  d E =-.173878E+00
 running on   16 total cores
 distrk:  each k-point on    8 cores,    2 groups
 distr:  one band on    4 cores,    2 groups
 using from now: INCAR     
 vasp.5.4.4.18Apr17-6-g9f103f2a35 (build Nov 27 2019 20:08:17) complex          
  
 POSCAR found type information on POSCAR  Ti
 POSCAR found :  1 types and     102 ions
 scaLAPACK will be used

 ----------------------------------------------------------------------------- 
|                                                                             |
|           W    W    AA    RRRRR   N    N  II  N    N   GGGG   !!!           |
|           W    W   A  A   R    R  NN   N  II  NN   N  G    G  !!!           |
|           W    W  A    A  R    R  N N  N  II  N N  N  G       !!!           |
|           W WW W  AAAAAA  RRRRR   N  N N  II  N  N N  G  GGG   !            |
|           WW  WW  A    A  R   R   N   NN  II  N   NN  G    G                |
|           W    W  A    A  R    R  N    N  II  N    N   GGGG   !!!           |
|                                                                             |
|      You have enabled k-point parallelism (KPAR>1).                         |
|      This developmental code was originally  written by Paul Kent at ORNL,  |
|      and carefully double checked in Vienna.                                |
|      GW as well as linear response parallelism added by Martijn Marsman     |
|      and Georg Kresse.                                                      |
|      Carefully verify results versus KPAR=1.                                |
|      Report problems to Paul Kent and Vienna.                               |
|                                                                             |
 ----------------------------------------------------------------------------- 

 LDA part: xc-table for Pade appr. of Perdew
 POSCAR found type information on POSCAR  Ti
 POSCAR found :  1 types and     102 ions
 POSCAR, INCAR and KPOINTS ok, starting setup
 FFT: planning ...
 WAVECAR not read
 WARNING: random wavefunctions but no delay for mixing, default for NELMDL
 entering main loop
       N       E                     dE             d eps       ncg     rms          rms(c)
DAV:   1     0.170566805371E+04    0.17057E+04   -0.11675E+05  6656   0.123E+03
DAV:   2    -0.543070535467E+03   -0.22487E+04   -0.21854E+04  6656   0.274E+02
DAV:   3    -0.890373221230E+03   -0.34730E+03   -0.32614E+03 10112   0.959E+01
DAV:   4    -0.918139812224E+03   -0.27767E+02   -0.26273E+02  9944   0.285E+01
DAV:   5    -0.919168297570E+03   -0.10285E+01   -0.10018E+01  9648   0.433E+00    0.126E+02
DAV:   6    -0.247505378498E+04   -0.15559E+04   -0.16554E+04 13016   0.185E+02    0.150E+02
DAV:   7    -0.105916391967E+04    0.14159E+04   -0.13631E+04 12280   0.138E+02    0.126E+02
DAV:   8    -0.773106107886E+03    0.28606E+03   -0.52593E+03 10576   0.169E+02    0.490E+01
DAV:   9    -0.838683455266E+03   -0.65577E+02   -0.13838E+03 11600   0.661E+01    0.571E+01
DAV:  10    -0.811788663728E+03    0.26895E+02   -0.37141E+02 10896   0.370E+01    0.489E+01
DAV:  11    -0.815381934181E+03   -0.35933E+01   -0.30947E+01 10712   0.844E+00    0.506E+01
DAV:  12    -0.821610618489E+03   -0.62287E+01   -0.74977E+00 10936   0.538E+00    0.533E+01
DAV:  13    -0.836728198941E+03   -0.15118E+02   -0.94945E+00 11072   0.766E+00    0.586E+01
DAV:  14    -0.832294484843E+03    0.44337E+01   -0.15463E+01 10632   0.731E+00    0.562E+01
DAV:  15    -0.793219278508E+03    0.39075E+02   -0.60297E+01 10216   0.160E+01    0.385E+01
DAV:  16    -0.775910569941E+03    0.17309E+02   -0.26415E+01 10464   0.107E+01    0.268E+01
DAV:  17    -0.771649115745E+03    0.42615E+01   -0.71786E+00 10208   0.546E+00    0.224E+01
DAV:  18    -0.771013593887E+03    0.63552E+00   -0.33897E+00 10400   0.361E+00    0.225E+01
DAV:  19    -0.771241137122E+03   -0.22754E+00   -0.40977E+00 10320   0.390E+00    0.240E+01
DAV:  20    -0.770156745606E+03    0.10844E+01   -0.27531E+00 10200   0.322E+00    0.241E+01
DAV:  21    -0.765369747655E+03    0.47870E+01   -0.10608E+01 10104   0.693E+00    0.231E+01
DAV:  22    -0.765157475550E+03    0.21227E+00   -0.42203E+00 10480   0.415E+00    0.246E+01
DAV:  23    -0.765389566435E+03   -0.23209E+00   -0.14032E+00 10480   0.238E+00    0.251E+01
DAV:  24    -0.765538393173E+03   -0.14883E+00   -0.38893E-01 10336   0.122E+00    0.260E+01
DAV:  25    -0.765893183736E+03   -0.35479E+00   -0.76475E-01  9856   0.175E+00    0.281E+01
DAV:  26    -0.767049559245E+03   -0.11564E+01   -0.15184E+00  9936   0.258E+00    0.318E+01
DAV:  27    -0.767557934760E+03   -0.50838E+00   -0.56576E-01 10360   0.143E+00    0.328E+01
DAV:  28    -0.768052774105E+03   -0.49484E+00   -0.18295E-01 10352   0.792E-01    0.337E+01
DAV:  29    -0.768285548351E+03   -0.23277E+00   -0.50603E-02  9880   0.410E-01    0.342E+01
DAV:  30    -0.768675273363E+03   -0.38973E+00   -0.47235E-02 10144   0.406E-01    0.351E+01
DAV:  31    -0.769803737904E+03   -0.11285E+01   -0.30138E-01  9904   0.102E+00    0.377E+01
DAV:  32    -0.771468952800E+03   -0.16652E+01   -0.51500E-01  9992   0.136E+00    0.413E+01
DAV:  33    -0.772178435200E+03   -0.70948E+00   -0.15777E-01 10528   0.733E-01    0.426E+01
DAV:  34    -0.772193813441E+03   -0.15378E-01   -0.10914E-02  9288   0.205E-01    0.427E+01
DAV:  35    -0.772248853889E+03   -0.55040E-01   -0.14116E-03 10672   0.532E-02    0.428E+01
DAV:  36    -0.772264497298E+03   -0.15643E-01   -0.22067E-04 10840   0.256E-02    0.428E+01
DAV:  37    -0.771679038614E+03    0.58546E+00   -0.47901E-02  9632   0.417E-01    0.413E+01
DAV:  38    -0.770179420903E+03    0.14996E+01   -0.33914E-01  9704   0.110E+00    0.373E+01
DAV:  39    -0.768548476745E+03    0.16309E+01   -0.51272E-01 10304   0.133E+00    0.329E+01
DAV:  40    -0.767541902729E+03    0.10066E+01   -0.27494E-01 10456   0.948E-01    0.301E+01
DAV:  41    -0.765714083418E+03    0.18278E+01   -0.94686E-01  9824   0.178E+00    0.242E+01
DAV:  42    -0.764871438457E+03    0.84264E+00   -0.49306E-01 10632   0.124E+00    0.207E+01
DAV:  43    -0.763912346951E+03    0.95909E+00   -0.63740E-01  9856   0.150E+00    0.158E+01
DAV:  44    -0.763306562069E+03    0.60578E+00   -0.63863E-01 10392   0.144E+00    0.113E+01
DAV:  45    -0.762994262018E+03    0.31230E+00   -0.38677E-01 10112   0.112E+00    0.774E+00
DAV:  46    -0.762950970341E+03    0.43292E-01   -0.57755E-02 10504   0.430E-01    0.698E+00
DAV:  47    -0.762928152990E+03    0.22817E-01   -0.11025E-02  9816   0.213E-01    0.646E+00
DAV:  48    -0.762829574458E+03    0.98579E-01   -0.12215E-01  9664   0.648E-01    0.400E+00
DAV:  49    -0.762769181343E+03    0.60393E-01   -0.24737E-01 10176   0.906E-01    0.855E-01
DAV:  50    -0.762768773264E+03    0.40808E-03   -0.47800E-02 10576   0.403E-01    0.504E-01
DAV:  51    -0.762771839305E+03   -0.30660E-02   -0.18546E-02 10264   0.255E-01    0.100E+00
DAV:  52    -0.762769077970E+03    0.27613E-02   -0.43976E-03 10184   0.126E-01    0.830E-01
DAV:  53    -0.762765771841E+03    0.33061E-02   -0.54013E-03  9704   0.137E-01    0.485E-01
DAV:  54    -0.762764986429E+03    0.78541E-03   -0.23009E-03 10400   0.924E-02    0.328E-01
DAV:  55    -0.762764368117E+03    0.61831E-03   -0.19310E-03  9840   0.845E-02    0.106E-01
DAV:  56    -0.762764310495E+03    0.57622E-04   -0.67401E-04 10688   0.461E-02    0.528E-02
DAV:  57    -0.762764300953E+03    0.95419E-05   -0.14085E-04 10008   0.225E-02    0.357E-02
DAV:  58    -0.762764294839E+03    0.61142E-05   -0.37558E-05  8288   0.118E-02    0.257E-02
DAV:  59    -0.762764289402E+03    0.54369E-05   -0.76670E-06  4568   0.722E-03    0.189E-02
DAV:  60    -0.762764287782E+03    0.16201E-05   -0.45987E-06  4168   0.494E-03
   1 F= -.76276429E+03 E0= -.76264086E+03  d E =-.246859E+00

DISTANCE=1.550
E_alpha= -344.754927  E_beta= -393.858462  E_total= -760.119423 
W_seq=-21.506034

DISTANCE=1.600
E_alpha= -344.754962  E_beta= -393.858128  E_total= -761.998549 
W_seq=-23.385459

DISTANCE=1.650
E_alpha= -344.754810  E_beta= -393.857917  E_total= -763.403002 
W_seq=-24.790275

DISTANCE=1.700
E_alpha= -344.754763  E_beta= -393.857906  E_total= -764.423486 
W_seq=-25.810817

DISTANCE=1.750
E_alpha= -344.754807  E_beta= -393.858019  E_total= -765.136967 
W_seq=-26.524141

DISTANCE=1.800
E_alpha= -344.754757  E_beta= -393.858056  E_total= -765.607279 
W_seq=-26.994466

DISTANCE=1.850
E_alpha= -344.754619  E_beta= -393.857831  E_total= -765.885162 
W_seq=-27.272712

DISTANCE=1.900
E_alpha= -344.754750  E_beta= -393.857858  E_total= -766.012366 
W_seq=-27.399758

DISTANCE=1.950
E_alpha= -344.754729  E_beta= -393.858087  E_total= -766.019342 
W_seq=-27.406526

DISTANCE=2.000
E_alpha= -344.754663  E_beta= -393.858201  E_total= -765.930576 
W_seq=-27.317712

DISTANCE=2.050
E_alpha= -344.754663  E_beta= -393.858015  E_total= -765.763421 
W_seq=-27.150743

DISTANCE=2.100
E_alpha= -344.754652  E_beta= -393.857927  E_total= -765.532670 
W_seq=-26.920091

DISTANCE=2.150
E_alpha= -344.754572  E_beta= -393.858050  E_total= -765.248036 
W_seq=-26.635414

DISTANCE=2.200
E_alpha= -344.754666  E_beta= -393.857997  E_total= -764.918246 
W_seq=-26.305583

DISTANCE=2.250
E_alpha= -344.754702  E_beta= -393.858022  E_total= -764.549043 
W_seq=-25.936319

DISTANCE=2.300
E_alpha= -344.754923  E_beta= -393.858048  E_total= -764.145654 
W_seq=-25.532683

DISTANCE=2.350
E_alpha= -344.754641  E_beta= -393.858002  E_total= -763.711419 
W_seq=-25.098776

DISTANCE=2.400
E_alpha= -344.754571  E_beta= -393.857878  E_total= -763.249835 
W_seq=-24.637386

DISTANCE=2.450
E_alpha= -344.754684  E_beta= -393.857820  E_total= -762.764288 
W_seq=-24.151784

