Distance=0.500
 running on   16 total cores
 distrk:  each k-point on    8 cores,    2 groups
 distr:  one band on    4 cores,    2 groups
 using from now: INCAR     
 vasp.5.4.4.18Apr17-6-g9f103f2a35 (build Nov 27 2019 20:08:17) complex          
  
 POSCAR found type information on POSCAR  Ti
 POSCAR found :  1 types and      32 ions
 scaLAPACK will be used

 ----------------------------------------------------------------------------- 
|                                                                             |
|           W    W    AA    RRRRR   N    N  II  N    N   GGGG   !!!           |
|           W    W   A  A   R    R  NN   N  II  NN   N  G    G  !!!           |
|           W    W  A    A  R    R  N N  N  II  N N  N  G       !!!           |
|           W WW W  AAAAAA  RRRRR   N  N N  II  N  N N  G  GGG   !            |
|           WW  WW  A    A  R   R   N   NN  II  N   NN  G    G                |
|           W    W  A    A  R    R  N    N  II  N    N   GGGG   !!!           |
|                                                                             |
|      You have enabled k-point parallelism (KPAR>1).                         |
|      This developmental code was originally  written by Paul Kent at ORNL,  |
|      and carefully double checked in Vienna.                                |
|      GW as well as linear response parallelism added by Martijn Marsman     |
|      and Georg Kresse.                                                      |
|      Carefully verify results versus KPAR=1.                                |
|      Report problems to Paul Kent and Vienna.                               |
|                                                                             |
 ----------------------------------------------------------------------------- 

 LDA part: xc-table for Pade appr. of Perdew
 POSCAR found type information on POSCAR  Ti
 POSCAR found :  1 types and      32 ions
 POSCAR, INCAR and KPOINTS ok, starting setup
 FFT: planning ...
 WAVECAR not read
 WARNING: random wavefunctions but no delay for mixing, default for NELMDL
 entering main loop
       N       E                     dE             d eps       ncg     rms          rms(c)
DAV:   1     0.586938743902E+03    0.58694E+03   -0.36134E+04  1968   0.110E+03
DAV:   2    -0.166142686878E+03   -0.75308E+03   -0.72510E+03  1968   0.243E+02
DAV:   3    -0.277285301431E+03   -0.11114E+03   -0.10481E+03  3056   0.845E+01
DAV:   4    -0.286562938956E+03   -0.92776E+01   -0.86624E+01  3096   0.263E+01
DAV:   5    -0.287119158954E+03   -0.55622E+00   -0.52941E+00  3208   0.533E+00    0.670E+01
DAV:   6    -0.426551340544E+03   -0.13943E+03   -0.23556E+03  3672   0.968E+01    0.845E+01
DAV:   7    -0.248630867022E+03    0.17792E+03   -0.25477E+03  3416   0.155E+02    0.297E+01
DAV:   8    -0.253923232564E+03   -0.52924E+01   -0.50118E+02  3044   0.681E+01    0.315E+01
DAV:   9    -0.236158834021E+03    0.17764E+02   -0.10301E+02  3044   0.308E+01    0.198E+01
DAV:  10    -0.235682610601E+03    0.47622E+00   -0.10976E+01  3240   0.742E+00    0.178E+01
DAV:  11    -0.237304512661E+03   -0.16219E+01   -0.42811E+00  3264   0.507E+00    0.199E+01
DAV:  12    -0.234185777356E+03    0.31187E+01   -0.50814E+00  2934   0.821E+00    0.142E+01
DAV:  13    -0.230673841508E+03    0.35119E+01   -0.94242E+00  2846   0.113E+01    0.646E+00
DAV:  14    -0.230304352293E+03    0.36949E+00   -0.23444E+00  3224   0.381E+00    0.466E+00
DAV:  15    -0.230291286877E+03    0.13065E-01   -0.12804E+00  2872   0.407E+00    0.479E+00
DAV:  16    -0.230027589611E+03    0.26370E+00   -0.24248E+00  3086   0.404E+00    0.181E+00
DAV:  17    -0.230023162719E+03    0.44269E-02   -0.13836E-01  2960   0.117E+00    0.119E+00
DAV:  18    -0.230002863790E+03    0.20299E-01   -0.10729E-01  3144   0.911E-01    0.426E-01
DAV:  19    -0.230003377013E+03   -0.51322E-03   -0.27663E-02  3304   0.401E-01    0.257E-01
DAV:  20    -0.230005812914E+03   -0.24359E-02   -0.18824E-02  2928   0.495E-01    0.253E-01
DAV:  21    -0.230007156044E+03   -0.13431E-02   -0.69863E-03  2806   0.286E-01    0.135E-01
DAV:  22    -0.230008503407E+03   -0.13474E-02   -0.23575E-03  2880   0.138E-01    0.618E-02
DAV:  23    -0.230009550652E+03   -0.10472E-02   -0.51491E-04  2480   0.616E-02    0.627E-02
DAV:  24    -0.230009615455E+03   -0.64803E-04   -0.23265E-04  2992   0.460E-02    0.213E-02
DAV:  25    -0.230009634238E+03   -0.18782E-04   -0.55702E-05  2504   0.228E-02    0.135E-02
DAV:  26    -0.230009636080E+03   -0.18424E-05   -0.32688E-05  2544   0.159E-02
   1 F= -.23000964E+03 E0= -.22995181E+03  d E =-.115652E+00
 running on   16 total cores
 distrk:  each k-point on    8 cores,    2 groups
 distr:  one band on    4 cores,    2 groups
 using from now: INCAR     
 vasp.5.4.4.18Apr17-6-g9f103f2a35 (build Nov 27 2019 20:08:17) complex          
  
 POSCAR found type information on POSCAR  Ti
 POSCAR found :  1 types and      36 ions
 scaLAPACK will be used

 ----------------------------------------------------------------------------- 
|                                                                             |
|           W    W    AA    RRRRR   N    N  II  N    N   GGGG   !!!           |
|           W    W   A  A   R    R  NN   N  II  NN   N  G    G  !!!           |
|           W    W  A    A  R    R  N N  N  II  N N  N  G       !!!           |
|           W WW W  AAAAAA  RRRRR   N  N N  II  N  N N  G  GGG   !            |
|           WW  WW  A    A  R   R   N   NN  II  N   NN  G    G                |
|           W    W  A    A  R    R  N    N  II  N    N   GGGG   !!!           |
|                                                                             |
|      You have enabled k-point parallelism (KPAR>1).                         |
|      This developmental code was originally  written by Paul Kent at ORNL,  |
|      and carefully double checked in Vienna.                                |
|      GW as well as linear response parallelism added by Martijn Marsman     |
|      and Georg Kresse.                                                      |
|      Carefully verify results versus KPAR=1.                                |
|      Report problems to Paul Kent and Vienna.                               |
|                                                                             |
 ----------------------------------------------------------------------------- 

 LDA part: xc-table for Pade appr. of Perdew
 POSCAR found type information on POSCAR  Ti
 POSCAR found :  1 types and      36 ions
 POSCAR, INCAR and KPOINTS ok, starting setup
 FFT: planning ...
 WAVECAR not read
 WARNING: random wavefunctions but no delay for mixing, default for NELMDL
 entering main loop
       N       E                     dE             d eps       ncg     rms          rms(c)
DAV:   1     0.732941393063E+03    0.73294E+03   -0.41783E+04  2208   0.113E+03
DAV:   2    -0.192024228474E+03   -0.92497E+03   -0.88805E+03  2208   0.253E+02
DAV:   3    -0.325102799496E+03   -0.13308E+03   -0.12243E+03  3192   0.921E+01
DAV:   4    -0.334257790588E+03   -0.91550E+01   -0.84505E+01  3160   0.290E+01
DAV:   5    -0.334747147959E+03   -0.48936E+00   -0.46893E+00  3544   0.544E+00    0.824E+01
DAV:   6    -0.538132821550E+03   -0.20339E+03   -0.29450E+03  4156   0.960E+01    0.110E+02
DAV:   7    -0.291184439454E+03    0.24695E+03   -0.44492E+03  4092   0.165E+02    0.369E+01
DAV:   8    -0.280591565730E+03    0.10593E+02   -0.49267E+02  3188   0.764E+01    0.368E+01
DAV:   9    -0.275960286873E+03    0.46313E+01   -0.33065E+01  3648   0.133E+01    0.302E+01
DAV:  10    -0.279146711365E+03   -0.31864E+01   -0.31106E+00  3392   0.464E+00    0.338E+01
DAV:  11    -0.264543900506E+03    0.14603E+02   -0.35609E+01  3204   0.209E+01    0.113E+01
DAV:  12    -0.263320143299E+03    0.12238E+01   -0.40759E+00  3528   0.619E+00    0.717E+00
DAV:  13    -0.262797821802E+03    0.52232E+00   -0.84609E-01  2916   0.342E+00    0.490E+00
DAV:  14    -0.262477948547E+03    0.31987E+00   -0.15922E+00  2876   0.465E+00    0.254E+00
DAV:  15    -0.262460420872E+03    0.17528E-01   -0.11758E-01  3528   0.899E-01    0.148E+00
DAV:  16    -0.262451362044E+03    0.90588E-02   -0.40168E-02  3560   0.596E-01    0.787E-01
DAV:  17    -0.262449657851E+03    0.17042E-02   -0.10059E-01  3504   0.807E-01    0.470E-01
DAV:  18    -0.262461981153E+03   -0.12323E-01   -0.14274E-01  3204   0.124E+00    0.852E-01
DAV:  19    -0.262457246344E+03    0.47348E-02   -0.29742E-02  3224   0.532E-01    0.366E-01
DAV:  20    -0.262457790100E+03   -0.54376E-03   -0.80584E-03  2500   0.348E-01    0.111E-01
DAV:  21    -0.262459032435E+03   -0.12423E-02   -0.12255E-03  2976   0.116E-01    0.874E-02
DAV:  22    -0.262459456244E+03   -0.42381E-03   -0.74860E-04  2704   0.910E-02    0.315E-02
DAV:  23    -0.262459468443E+03   -0.12199E-04   -0.90645E-05  2816   0.308E-02    0.261E-02
DAV:  24    -0.262459461647E+03    0.67955E-05   -0.55933E-05  3232   0.231E-02    0.867E-03
DAV:  25    -0.262459462527E+03   -0.87914E-06   -0.99399E-06  1840   0.138E-02
   1 F= -.26245946E+03 E0= -.26240700E+03  d E =-.104925E+00
 running on   16 total cores
 distrk:  each k-point on    8 cores,    2 groups
 distr:  one band on    4 cores,    2 groups
 using from now: INCAR     
 vasp.5.4.4.18Apr17-6-g9f103f2a35 (build Nov 27 2019 20:08:17) complex          
  
 POSCAR found type information on POSCAR  Ti
 POSCAR found :  1 types and      68 ions
 scaLAPACK will be used

 ----------------------------------------------------------------------------- 
|                                                                             |
|           W    W    AA    RRRRR   N    N  II  N    N   GGGG   !!!           |
|           W    W   A  A   R    R  NN   N  II  NN   N  G    G  !!!           |
|           W    W  A    A  R    R  N N  N  II  N N  N  G       !!!           |
|           W WW W  AAAAAA  RRRRR   N  N N  II  N  N N  G  GGG   !            |
|           WW  WW  A    A  R   R   N   NN  II  N   NN  G    G                |
|           W    W  A    A  R    R  N    N  II  N    N   GGGG   !!!           |
|                                                                             |
|      You have enabled k-point parallelism (KPAR>1).                         |
|      This developmental code was originally  written by Paul Kent at ORNL,  |
|      and carefully double checked in Vienna.                                |
|      GW as well as linear response parallelism added by Martijn Marsman     |
|      and Georg Kresse.                                                      |
|      Carefully verify results versus KPAR=1.                                |
|      Report problems to Paul Kent and Vienna.                               |
|                                                                             |
 ----------------------------------------------------------------------------- 

 LDA part: xc-table for Pade appr. of Perdew
 POSCAR found type information on POSCAR  Ti
 POSCAR found :  1 types and      68 ions
 POSCAR, INCAR and KPOINTS ok, starting setup
 FFT: planning ...
 WAVECAR not read
 WARNING: random wavefunctions but no delay for mixing, default for NELMDL
 entering main loop
       N       E                     dE             d eps       ncg     rms          rms(c)
DAV:   1     0.121389547161E+04    0.12139E+04   -0.78354E+04  4128   0.124E+03
DAV:   2    -0.343793870111E+03   -0.15577E+04   -0.15105E+04  4128   0.278E+02
DAV:   3    -0.571315278952E+03   -0.22752E+03   -0.21126E+03  5992   0.986E+01
DAV:   4    -0.589468102647E+03   -0.18153E+02   -0.17001E+02  6072   0.291E+01
DAV:   5    -0.590156023639E+03   -0.68792E+00   -0.66813E+00  5920   0.456E+00    0.108E+02
DAV:   6    -0.136515171277E+04   -0.77500E+03   -0.78016E+03  8180   0.154E+02    0.140E+02
DAV:   7    -0.602418382256E+03    0.76273E+03   -0.96501E+03  7512   0.164E+02    0.639E+01
DAV:   8    -0.562192672041E+03    0.40226E+02   -0.20187E+03  6716   0.137E+02    0.557E+01
DAV:   9    -0.564758626204E+03   -0.25660E+01   -0.71339E+02  7220   0.786E+01    0.503E+01
DAV:  10    -0.533236280106E+03    0.31522E+02   -0.26259E+02  7192   0.441E+01    0.416E+01
DAV:  11    -0.523078722279E+03    0.10158E+02   -0.49862E+01  6528   0.181E+01    0.353E+01
DAV:  12    -0.520583881337E+03    0.24948E+01   -0.56349E+00  6064   0.614E+00    0.321E+01
DAV:  13    -0.516479122663E+03    0.41048E+01   -0.69779E+00  6152   0.697E+00    0.242E+01
DAV:  14    -0.513213493616E+03    0.32656E+01   -0.81636E+00  6152   0.745E+00    0.178E+01
DAV:  15    -0.511897743983E+03    0.13157E+01   -0.53102E+00  6336   0.603E+00    0.147E+01
DAV:  16    -0.510801972014E+03    0.10958E+01   -0.23632E+00  6152   0.435E+00    0.118E+01
DAV:  17    -0.510025720545E+03    0.77625E+00   -0.17245E+00  5976   0.375E+00    0.871E+00
DAV:  18    -0.509273965136E+03    0.75176E+00   -0.23453E+00  5544   0.442E+00    0.444E+00
DAV:  19    -0.509090092907E+03    0.18387E+00   -0.15312E+00  6384   0.335E+00    0.242E+00
DAV:  20    -0.509020172765E+03    0.69920E-01   -0.61375E-01  6128   0.214E+00    0.987E-01
DAV:  21    -0.509010720828E+03    0.94519E-02   -0.17473E-01  6248   0.112E+00    0.608E-01
DAV:  22    -0.509008911851E+03    0.18090E-02   -0.58534E-02  6400   0.650E-01    0.578E-01
DAV:  23    -0.509006399340E+03    0.25125E-02   -0.23161E-02  6408   0.401E-01    0.450E-01
DAV:  24    -0.509005457535E+03    0.94180E-03   -0.12999E-02  6328   0.284E-01    0.260E-01
DAV:  25    -0.509005456395E+03    0.11408E-05   -0.84326E-03  6336   0.240E-01    0.173E-01
DAV:  26    -0.509005125750E+03    0.33064E-03   -0.38678E-03  6176   0.159E-01    0.110E-01
DAV:  27    -0.509004942754E+03    0.18300E-03   -0.12325E-03  6248   0.103E-01    0.585E-02
DAV:  28    -0.509004892131E+03    0.50623E-04   -0.43071E-04  6384   0.515E-02    0.311E-02
DAV:  29    -0.509004892215E+03   -0.83946E-07   -0.11179E-04  6184   0.255E-02    0.279E-02
DAV:  30    -0.509004882994E+03    0.92208E-05   -0.46255E-05  5528   0.188E-02    0.152E-02
DAV:  31    -0.509004879958E+03    0.30363E-05   -0.31275E-05  4920   0.149E-02
   1 F= -.50900488E+03 E0= -.50892805E+03  d E =-.153658E+00
Distance=1.000
 running on   16 total cores
 distrk:  each k-point on    8 cores,    2 groups
 distr:  one band on    4 cores,    2 groups
 using from now: INCAR     
 vasp.5.4.4.18Apr17-6-g9f103f2a35 (build Nov 27 2019 20:08:17) complex          
  
 POSCAR found type information on POSCAR  Ti
 POSCAR found :  1 types and      32 ions
 scaLAPACK will be used

 ----------------------------------------------------------------------------- 
|                                                                             |
|           W    W    AA    RRRRR   N    N  II  N    N   GGGG   !!!           |
|           W    W   A  A   R    R  NN   N  II  NN   N  G    G  !!!           |
|           W    W  A    A  R    R  N N  N  II  N N  N  G       !!!           |
|           W WW W  AAAAAA  RRRRR   N  N N  II  N  N N  G  GGG   !            |
|           WW  WW  A    A  R   R   N   NN  II  N   NN  G    G                |
|           W    W  A    A  R    R  N    N  II  N    N   GGGG   !!!           |
|                                                                             |
|      You have enabled k-point parallelism (KPAR>1).                         |
|      This developmental code was originally  written by Paul Kent at ORNL,  |
|      and carefully double checked in Vienna.                                |
|      GW as well as linear response parallelism added by Martijn Marsman     |
|      and Georg Kresse.                                                      |
|      Carefully verify results versus KPAR=1.                                |
|      Report problems to Paul Kent and Vienna.                               |
|                                                                             |
 ----------------------------------------------------------------------------- 

 LDA part: xc-table for Pade appr. of Perdew
 POSCAR found type information on POSCAR  Ti
 POSCAR found :  1 types and      32 ions
 POSCAR, INCAR and KPOINTS ok, starting setup
 FFT: planning ...
 WAVECAR not read
 entering main loop
       N       E                     dE             d eps       ncg     rms          rms(c)
DAV:   1     0.590418638566E+03    0.59042E+03   -0.36218E+04  1968   0.110E+03
DAV:   2    -0.166026529699E+03   -0.75645E+03   -0.72808E+03  1968   0.243E+02
DAV:   3    -0.277256957010E+03   -0.11123E+03   -0.10465E+03  3072   0.842E+01
DAV:   4    -0.286568450724E+03   -0.93115E+01   -0.86492E+01  3096   0.263E+01
DAV:   5    -0.287121748875E+03   -0.55330E+00   -0.52867E+00  3200   0.536E+00    0.670E+01
DAV:   6    -0.427176629446E+03   -0.14005E+03   -0.23697E+03  3704   0.967E+01    0.846E+01
DAV:   7    -0.249103677673E+03    0.17807E+03   -0.25733E+03  3448   0.155E+02    0.298E+01
DAV:   8    -0.254325868998E+03   -0.52222E+01   -0.50250E+02  3074   0.684E+01    0.317E+01
DAV:   9    -0.236207669616E+03    0.18118E+02   -0.10439E+02  3062   0.311E+01    0.199E+01
DAV:  10    -0.235642410610E+03    0.56526E+00   -0.11200E+01  3216   0.752E+00    0.177E+01
DAV:  11    -0.237208640422E+03   -0.15662E+01   -0.40795E+00  3256   0.487E+00    0.198E+01
DAV:  12    -0.233550506538E+03    0.36581E+01   -0.66545E+00  2888   0.964E+00    0.130E+01
DAV:  13    -0.230652285498E+03    0.28982E+01   -0.76839E+00  2954   0.100E+01    0.637E+00
DAV:  14    -0.230266066342E+03    0.38622E+00   -0.21845E+00  3214   0.375E+00    0.439E+00
DAV:  15    -0.230306999042E+03   -0.40933E-01   -0.10992E+00  2952   0.360E+00    0.481E+00
DAV:  16    -0.230025068091E+03    0.28193E+00   -0.26007E+00  3060   0.415E+00    0.182E+00
DAV:  17    -0.230022418330E+03    0.26498E-02   -0.15168E-01  3040   0.120E+00    0.120E+00
DAV:  18    -0.230002131217E+03    0.20287E-01   -0.10728E-01  3096   0.912E-01    0.361E-01
DAV:  19    -0.230003319110E+03   -0.11879E-02   -0.30052E-02  3312   0.414E-01    0.238E-01
DAV:  20    -0.230005425317E+03   -0.21062E-02   -0.15737E-02  2944   0.440E-01    0.220E-01
DAV:  21    -0.230006715988E+03   -0.12907E-02   -0.66876E-03  2888   0.270E-01    0.131E-01
DAV:  22    -0.230008250682E+03   -0.15347E-02   -0.30584E-03  2896   0.149E-01    0.736E-02
DAV:  23    -0.230008974924E+03   -0.72424E-03   -0.35680E-04  2536   0.565E-02    0.615E-02
DAV:  24    -0.230009065013E+03   -0.90089E-04   -0.22563E-04  2976   0.455E-02    0.246E-02
DAV:  25    -0.230009099416E+03   -0.34403E-04   -0.13133E-04  2904   0.340E-02    0.145E-02
DAV:  26    -0.230009100356E+03   -0.94034E-06   -0.12455E-05  1936   0.113E-02
   1 F= -.23000910E+03 E0= -.22995128E+03  d E =-.115648E+00
 running on   16 total cores
 distrk:  each k-point on    8 cores,    2 groups
 distr:  one band on    4 cores,    2 groups
 using from now: INCAR     
 vasp.5.4.4.18Apr17-6-g9f103f2a35 (build Nov 27 2019 20:08:17) complex          
  
 POSCAR found type information on POSCAR  Ti
 POSCAR found :  1 types and      36 ions
 scaLAPACK will be used

 ----------------------------------------------------------------------------- 
|                                                                             |
|           W    W    AA    RRRRR   N    N  II  N    N   GGGG   !!!           |
|           W    W   A  A   R    R  NN   N  II  NN   N  G    G  !!!           |
|           W    W  A    A  R    R  N N  N  II  N N  N  G       !!!           |
|           W WW W  AAAAAA  RRRRR   N  N N  II  N  N N  G  GGG   !            |
|           WW  WW  A    A  R   R   N   NN  II  N   NN  G    G                |
|           W    W  A    A  R    R  N    N  II  N    N   GGGG   !!!           |
|                                                                             |
|      You have enabled k-point parallelism (KPAR>1).                         |
|      This developmental code was originally  written by Paul Kent at ORNL,  |
|      and carefully double checked in Vienna.                                |
|      GW as well as linear response parallelism added by Martijn Marsman     |
|      and Georg Kresse.                                                      |
|      Carefully verify results versus KPAR=1.                                |
|      Report problems to Paul Kent and Vienna.                               |
|                                                                             |
 ----------------------------------------------------------------------------- 

 LDA part: xc-table for Pade appr. of Perdew
 POSCAR found type information on POSCAR  Ti
 POSCAR found :  1 types and      36 ions
 POSCAR, INCAR and KPOINTS ok, starting setup
 FFT: planning ...
 WAVECAR not read
 WARNING: random wavefunctions but no delay for mixing, default for NELMDL
 entering main loop
       N       E                     dE             d eps       ncg     rms          rms(c)
DAV:   1     0.731868755298E+03    0.73187E+03   -0.41828E+04  2208   0.113E+03
DAV:   2    -0.191757072565E+03   -0.92363E+03   -0.88740E+03  2208   0.253E+02
DAV:   3    -0.324962846852E+03   -0.13321E+03   -0.12293E+03  3232   0.916E+01
DAV:   4    -0.334228297171E+03   -0.92655E+01   -0.85457E+01  3160   0.287E+01
DAV:   5    -0.334746346907E+03   -0.51805E+00   -0.49406E+00  3592   0.546E+00    0.825E+01
DAV:   6    -0.538344455609E+03   -0.20360E+03   -0.29625E+03  4164   0.959E+01    0.110E+02
DAV:   7    -0.291506309633E+03    0.24684E+03   -0.44508E+03  4076   0.165E+02    0.370E+01
DAV:   8    -0.280423172023E+03    0.11083E+02   -0.49499E+02  3164   0.764E+01    0.369E+01
DAV:   9    -0.275894163336E+03    0.45290E+01   -0.36006E+01  3744   0.135E+01    0.302E+01
DAV:  10    -0.279052473035E+03   -0.31583E+01   -0.36388E+00  3480   0.490E+00    0.336E+01
DAV:  11    -0.264414619387E+03    0.14638E+02   -0.35228E+01  3180   0.205E+01    0.108E+01
DAV:  12    -0.263585644843E+03    0.82897E+00   -0.27111E+00  3552   0.505E+00    0.810E+00
DAV:  13    -0.262641537743E+03    0.94411E+00   -0.22020E+00  2848   0.548E+00    0.396E+00
DAV:  14    -0.262452364579E+03    0.18917E+00   -0.12672E+00  3188   0.388E+00    0.211E+00
DAV:  15    -0.262456816089E+03   -0.44515E-02   -0.47112E-02  3160   0.599E-01    0.140E+00
DAV:  16    -0.262480117229E+03   -0.23301E-01   -0.40843E-01  3488   0.163E+00    0.152E+00
DAV:  17    -0.262446935709E+03    0.33182E-01   -0.17419E-01  3248   0.133E+00    0.330E-01
DAV:  18    -0.262453319087E+03   -0.63834E-02   -0.56775E-02  2904   0.865E-01    0.568E-01
DAV:  19    -0.262459802565E+03   -0.64835E-02   -0.71112E-03  2744   0.194E-01    0.545E-01
DAV:  20    -0.262457317502E+03    0.24851E-02   -0.13237E-02  2868   0.403E-01    0.145E-01
DAV:  21    -0.262458638733E+03   -0.13212E-02   -0.32101E-03  2760   0.202E-01    0.560E-02
DAV:  22    -0.262458900202E+03   -0.26147E-03   -0.34753E-04  3268   0.458E-02    0.710E-02
DAV:  23    -0.262458924788E+03   -0.24586E-04   -0.51258E-04  2744   0.800E-02    0.155E-02
DAV:  24    -0.262458936715E+03   -0.11927E-04   -0.34292E-05  2512   0.187E-02    0.798E-03
DAV:  25    -0.262458936553E+03    0.16269E-06   -0.43549E-06  1704   0.807E-03
   1 F= -.26245894E+03 E0= -.26240648E+03  d E =-.104912E+00
 running on   16 total cores
 distrk:  each k-point on    8 cores,    2 groups
 distr:  one band on    4 cores,    2 groups
 using from now: INCAR     
 vasp.5.4.4.18Apr17-6-g9f103f2a35 (build Nov 27 2019 20:08:17) complex          
  
 POSCAR found type information on POSCAR  Ti
 POSCAR found :  1 types and      68 ions
 scaLAPACK will be used

 ----------------------------------------------------------------------------- 
|                                                                             |
|           W    W    AA    RRRRR   N    N  II  N    N   GGGG   !!!           |
|           W    W   A  A   R    R  NN   N  II  NN   N  G    G  !!!           |
|           W    W  A    A  R    R  N N  N  II  N N  N  G       !!!           |
|           W WW W  AAAAAA  RRRRR   N  N N  II  N  N N  G  GGG   !            |
|           WW  WW  A    A  R   R   N   NN  II  N   NN  G    G                |
|           W    W  A    A  R    R  N    N  II  N    N   GGGG   !!!           |
|                                                                             |
|      You have enabled k-point parallelism (KPAR>1).                         |
|      This developmental code was originally  written by Paul Kent at ORNL,  |
|      and carefully double checked in Vienna.                                |
|      GW as well as linear response parallelism added by Martijn Marsman     |
|      and Georg Kresse.                                                      |
|      Carefully verify results versus KPAR=1.                                |
|      Report problems to Paul Kent and Vienna.                               |
|                                                                             |
 ----------------------------------------------------------------------------- 

 LDA part: xc-table for Pade appr. of Perdew
 POSCAR found type information on POSCAR  Ti
 POSCAR found :  1 types and      68 ions
 POSCAR, INCAR and KPOINTS ok, starting setup
 FFT: planning ...
 WAVECAR not read
 WARNING: random wavefunctions but no delay for mixing, default for NELMDL
 entering main loop
       N       E                     dE             d eps       ncg     rms          rms(c)
DAV:   1     0.120764667227E+04    0.12076E+04   -0.78272E+04  4128   0.124E+03
DAV:   2    -0.344624690243E+03   -0.15523E+04   -0.15050E+04  4128   0.278E+02
DAV:   3    -0.571863024894E+03   -0.22724E+03   -0.21037E+03  5976   0.983E+01
DAV:   4    -0.590117804330E+03   -0.18255E+02   -0.17098E+02  6024   0.289E+01
DAV:   5    -0.590854420318E+03   -0.73662E+00   -0.71451E+00  5896   0.469E+00    0.108E+02
DAV:   6    -0.138032929821E+04   -0.78947E+03   -0.78774E+03  8172   0.155E+02    0.138E+02
DAV:   7    -0.601647696829E+03    0.77868E+03   -0.95549E+03  7572   0.163E+02    0.642E+01
DAV:   8    -0.553606054287E+03    0.48042E+02   -0.19737E+03  6576   0.138E+02    0.515E+01
DAV:   9    -0.566291764360E+03   -0.12686E+02   -0.66049E+02  7364   0.740E+01    0.496E+01
DAV:  10    -0.534622519250E+03    0.31669E+02   -0.24866E+02  7208   0.432E+01    0.411E+01
DAV:  11    -0.524709159892E+03    0.99134E+01   -0.49220E+01  6600   0.178E+01    0.349E+01
DAV:  12    -0.522453486221E+03    0.22557E+01   -0.48465E+00  6152   0.555E+00    0.323E+01
DAV:  13    -0.518510448005E+03    0.39430E+01   -0.59398E+00  6136   0.644E+00    0.253E+01
DAV:  14    -0.514838844699E+03    0.36716E+01   -0.84218E+00  6248   0.763E+00    0.186E+01
DAV:  15    -0.512989543366E+03    0.18493E+01   -0.54566E+00  6272   0.615E+00    0.144E+01
DAV:  16    -0.511978352866E+03    0.10112E+01   -0.38395E+00  6176   0.531E+00    0.118E+01
DAV:  17    -0.511288885733E+03    0.68947E+00   -0.89694E-01  5600   0.278E+00    0.927E+00
DAV:  18    -0.510665966344E+03    0.62292E+00   -0.19905E+00  6256   0.378E+00    0.627E+00
DAV:  19    -0.510199849412E+03    0.46612E+00   -0.17187E+00  5912   0.373E+00    0.287E+00
DAV:  20    -0.510122225139E+03    0.77624E-01   -0.68745E-01  6120   0.231E+00    0.152E+00
DAV:  21    -0.510100816133E+03    0.21409E-01   -0.30848E-01  6224   0.154E+00    0.933E-01
DAV:  22    -0.510092247757E+03    0.85684E-02   -0.11151E-01  6248   0.887E-01    0.699E-01
DAV:  23    -0.510088439796E+03    0.38080E-02   -0.38195E-02  6392   0.478E-01    0.468E-01
DAV:  24    -0.510087109946E+03    0.13298E-02   -0.16471E-02  6280   0.324E-01    0.252E-01
DAV:  25    -0.510087355406E+03   -0.24546E-03   -0.96084E-03  6272   0.249E-01    0.208E-01
DAV:  26    -0.510087234552E+03    0.12085E-03   -0.47316E-03  6184   0.181E-01    0.205E-01
DAV:  27    -0.510086823340E+03    0.41121E-03   -0.20796E-03  6280   0.127E-01    0.152E-01
DAV:  28    -0.510086606364E+03    0.21698E-03   -0.12733E-03  6360   0.907E-02    0.668E-02
DAV:  29    -0.510086598412E+03    0.79523E-05   -0.35518E-04  6136   0.510E-02    0.274E-02
DAV:  30    -0.510086594642E+03    0.37700E-05   -0.74002E-05  5920   0.224E-02    0.191E-02
DAV:  31    -0.510086589102E+03    0.55398E-05   -0.40841E-05  5168   0.175E-02    0.122E-02
DAV:  32    -0.510086584627E+03    0.44750E-05   -0.22266E-05  4344   0.122E-02
   1 F= -.51008658E+03 E0= -.51000869E+03  d E =-.155798E+00
Distance=1.500
 running on   16 total cores
 distrk:  each k-point on    8 cores,    2 groups
 distr:  one band on    4 cores,    2 groups
 using from now: INCAR     
 vasp.5.4.4.18Apr17-6-g9f103f2a35 (build Nov 27 2019 20:08:17) complex          
  
 POSCAR found type information on POSCAR  Ti
 POSCAR found :  1 types and      32 ions
 scaLAPACK will be used

 ----------------------------------------------------------------------------- 
|                                                                             |
|           W    W    AA    RRRRR   N    N  II  N    N   GGGG   !!!           |
|           W    W   A  A   R    R  NN   N  II  NN   N  G    G  !!!           |
|           W    W  A    A  R    R  N N  N  II  N N  N  G       !!!           |
|           W WW W  AAAAAA  RRRRR   N  N N  II  N  N N  G  GGG   !            |
|           WW  WW  A    A  R   R   N   NN  II  N   NN  G    G                |
|           W    W  A    A  R    R  N    N  II  N    N   GGGG   !!!           |
|                                                                             |
|      You have enabled k-point parallelism (KPAR>1).                         |
|      This developmental code was originally  written by Paul Kent at ORNL,  |
|      and carefully double checked in Vienna.                                |
|      GW as well as linear response parallelism added by Martijn Marsman     |
|      and Georg Kresse.                                                      |
|      Carefully verify results versus KPAR=1.                                |
|      Report problems to Paul Kent and Vienna.                               |
|                                                                             |
 ----------------------------------------------------------------------------- 

 LDA part: xc-table for Pade appr. of Perdew
 POSCAR found type information on POSCAR  Ti
 POSCAR found :  1 types and      32 ions
 POSCAR, INCAR and KPOINTS ok, starting setup
 FFT: planning ...
 WAVECAR not read
 entering main loop
       N       E                     dE             d eps       ncg     rms          rms(c)
DAV:   1     0.590520435606E+03    0.59052E+03   -0.36193E+04  1968   0.110E+03
DAV:   2    -0.165737339471E+03   -0.75626E+03   -0.72855E+03  1968   0.243E+02
DAV:   3    -0.277298087813E+03   -0.11156E+03   -0.10520E+03  3072   0.844E+01
DAV:   4    -0.286558765983E+03   -0.92607E+01   -0.85958E+01  3096   0.262E+01
DAV:   5    -0.287116586482E+03   -0.55782E+00   -0.53252E+00  3168   0.530E+00    0.670E+01
DAV:   6    -0.425743435412E+03   -0.13863E+03   -0.23470E+03  3672   0.966E+01    0.842E+01
DAV:   7    -0.248710148514E+03    0.17703E+03   -0.25529E+03  3424   0.155E+02    0.295E+01
DAV:   8    -0.253843352285E+03   -0.51332E+01   -0.49622E+02  3026   0.676E+01    0.314E+01
DAV:   9    -0.236139507226E+03    0.17704E+02   -0.10212E+02  3012   0.306E+01    0.198E+01
DAV:  10    -0.235624986412E+03    0.51452E+00   -0.11170E+01  3232   0.739E+00    0.177E+01
DAV:  11    -0.237258657702E+03   -0.16337E+01   -0.44661E+00  3248   0.513E+00    0.198E+01
DAV:  12    -0.233866494584E+03    0.33922E+01   -0.57851E+00  2912   0.886E+00    0.136E+01
DAV:  13    -0.230645337061E+03    0.32212E+01   -0.85891E+00  2906   0.107E+01    0.629E+00
DAV:  14    -0.230278888277E+03    0.36645E+00   -0.21712E+00  3256   0.369E+00    0.443E+00
DAV:  15    -0.230289096594E+03   -0.10208E-01   -0.12825E+00  2872   0.404E+00    0.472E+00
DAV:  16    -0.230023487159E+03    0.26561E+00   -0.23641E+00  3094   0.402E+00    0.173E+00
DAV:  17    -0.230019018471E+03    0.44687E-02   -0.14106E-01  3024   0.119E+00    0.108E+00
DAV:  18    -0.230002172075E+03    0.16846E-01   -0.98312E-02  3144   0.887E-01    0.359E-01
DAV:  19    -0.230003272541E+03   -0.11005E-02   -0.23694E-02  3304   0.363E-01    0.231E-01
DAV:  20    -0.230005283404E+03   -0.20109E-02   -0.14734E-02  2936   0.432E-01    0.224E-01
DAV:  21    -0.230006530977E+03   -0.12476E-02   -0.72353E-03  2872   0.279E-01    0.144E-01
DAV:  22    -0.230008043945E+03   -0.15130E-02   -0.34148E-03  2880   0.159E-01    0.715E-02
DAV:  23    -0.230008825943E+03   -0.78200E-03   -0.39086E-04  2512   0.636E-02    0.606E-02
DAV:  24    -0.230008971878E+03   -0.14593E-03   -0.28180E-04  2960   0.510E-02    0.200E-02
DAV:  25    -0.230009008523E+03   -0.36645E-04   -0.82541E-05  2712   0.288E-02    0.104E-02
DAV:  26    -0.230009011732E+03   -0.32092E-05   -0.11727E-05  1920   0.914E-03
   1 F= -.23000901E+03 E0= -.22995118E+03  d E =-.115656E+00
 running on   16 total cores
 distrk:  each k-point on    8 cores,    2 groups
 distr:  one band on    4 cores,    2 groups
 using from now: INCAR     
 vasp.5.4.4.18Apr17-6-g9f103f2a35 (build Nov 27 2019 20:08:17) complex          
  
 POSCAR found type information on POSCAR  Ti
 POSCAR found :  1 types and      36 ions
 scaLAPACK will be used

 ----------------------------------------------------------------------------- 
|                                                                             |
|           W    W    AA    RRRRR   N    N  II  N    N   GGGG   !!!           |
|           W    W   A  A   R    R  NN   N  II  NN   N  G    G  !!!           |
|           W    W  A    A  R    R  N N  N  II  N N  N  G       !!!           |
|           W WW W  AAAAAA  RRRRR   N  N N  II  N  N N  G  GGG   !            |
|           WW  WW  A    A  R   R   N   NN  II  N   NN  G    G                |
|           W    W  A    A  R    R  N    N  II  N    N   GGGG   !!!           |
|                                                                             |
|      You have enabled k-point parallelism (KPAR>1).                         |
|      This developmental code was originally  written by Paul Kent at ORNL,  |
|      and carefully double checked in Vienna.                                |
|      GW as well as linear response parallelism added by Martijn Marsman     |
|      and Georg Kresse.                                                      |
|      Carefully verify results versus KPAR=1.                                |
|      Report problems to Paul Kent and Vienna.                               |
|                                                                             |
 ----------------------------------------------------------------------------- 

 LDA part: xc-table for Pade appr. of Perdew
 POSCAR found type information on POSCAR  Ti
 POSCAR found :  1 types and      36 ions
 POSCAR, INCAR and KPOINTS ok, starting setup
 FFT: planning ...
 WAVECAR not read
 WARNING: random wavefunctions but no delay for mixing, default for NELMDL
 entering main loop
       N       E                     dE             d eps       ncg     rms          rms(c)
DAV:   1     0.734182673492E+03    0.73418E+03   -0.41787E+04  2208   0.113E+03
DAV:   2    -0.191689445309E+03   -0.92587E+03   -0.88914E+03  2208   0.253E+02
DAV:   3    -0.325067319542E+03   -0.13338E+03   -0.12313E+03  3224   0.916E+01
DAV:   4    -0.334242263110E+03   -0.91749E+01   -0.84761E+01  3168   0.288E+01
DAV:   5    -0.334744053667E+03   -0.50179E+00   -0.47792E+00  3544   0.544E+00    0.824E+01
DAV:   6    -0.537682680273E+03   -0.20294E+03   -0.29426E+03  4160   0.958E+01    0.110E+02
DAV:   7    -0.291599072309E+03    0.24608E+03   -0.44698E+03  4096   0.165E+02    0.369E+01
DAV:   8    -0.280786496036E+03    0.10813E+02   -0.49355E+02  3224   0.762E+01    0.368E+01
DAV:   9    -0.275954139218E+03    0.48324E+01   -0.32769E+01  3736   0.131E+01    0.302E+01
DAV:  10    -0.279855023283E+03   -0.39009E+01   -0.51330E+00  3484   0.578E+00    0.343E+01
DAV:  11    -0.264302331658E+03    0.15553E+02   -0.37473E+01  3192   0.212E+01    0.108E+01
DAV:  12    -0.263226654201E+03    0.10757E+01   -0.36463E+00  3560   0.568E+00    0.688E+00
DAV:  13    -0.262742945468E+03    0.48371E+00   -0.94535E-01  2860   0.367E+00    0.458E+00
DAV:  14    -0.262459356308E+03    0.28359E+00   -0.14460E+00  3096   0.415E+00    0.207E+00
DAV:  15    -0.262477274807E+03   -0.17918E-01   -0.97429E-02  2944   0.101E+00    0.165E+00
DAV:  16    -0.262487211531E+03   -0.99367E-02   -0.90247E-01  3448   0.256E+00    0.173E+00
DAV:  17    -0.262453627547E+03    0.33584E-01   -0.10835E-01  3236   0.107E+00    0.771E-01
DAV:  18    -0.262450987983E+03    0.26396E-02   -0.10468E-01  3112   0.112E+00    0.445E-01
DAV:  19    -0.262458988951E+03   -0.80010E-02   -0.11825E-02  3160   0.308E-01    0.521E-01
DAV:  20    -0.262456769044E+03    0.22199E-02   -0.17511E-02  2824   0.456E-01    0.957E-02
DAV:  21    -0.262458309711E+03   -0.15407E-02   -0.13530E-03  2688   0.129E-01    0.464E-02
DAV:  22    -0.262458764968E+03   -0.45526E-03   -0.27570E-04  2864   0.495E-02    0.262E-02
DAV:  23    -0.262458818924E+03   -0.53956E-04   -0.51467E-05  2848   0.223E-02    0.145E-02
DAV:  24    -0.262458831506E+03   -0.12582E-04   -0.29052E-05  2688   0.162E-02    0.110E-02
DAV:  25    -0.262458831928E+03   -0.42193E-06   -0.85367E-06  1712   0.133E-02
   1 F= -.26245883E+03 E0= -.26240637E+03  d E =-.104920E+00
 running on   16 total cores
 distrk:  each k-point on    8 cores,    2 groups
 distr:  one band on    4 cores,    2 groups
 using from now: INCAR     
 vasp.5.4.4.18Apr17-6-g9f103f2a35 (build Nov 27 2019 20:08:17) complex          
  
 POSCAR found type information on POSCAR  Ti
 POSCAR found :  1 types and      68 ions
 scaLAPACK will be used

 ----------------------------------------------------------------------------- 
|                                                                             |
|           W    W    AA    RRRRR   N    N  II  N    N   GGGG   !!!           |
|           W    W   A  A   R    R  NN   N  II  NN   N  G    G  !!!           |
|           W    W  A    A  R    R  N N  N  II  N N  N  G       !!!           |
|           W WW W  AAAAAA  RRRRR   N  N N  II  N  N N  G  GGG   !            |
|           WW  WW  A    A  R   R   N   NN  II  N   NN  G    G                |
|           W    W  A    A  R    R  N    N  II  N    N   GGGG   !!!           |
|                                                                             |
|      You have enabled k-point parallelism (KPAR>1).                         |
|      This developmental code was originally  written by Paul Kent at ORNL,  |
|      and carefully double checked in Vienna.                                |
|      GW as well as linear response parallelism added by Martijn Marsman     |
|      and Georg Kresse.                                                      |
|      Carefully verify results versus KPAR=1.                                |
|      Report problems to Paul Kent and Vienna.                               |
|                                                                             |
 ----------------------------------------------------------------------------- 

 LDA part: xc-table for Pade appr. of Perdew
 POSCAR found type information on POSCAR  Ti
 POSCAR found :  1 types and      68 ions
 POSCAR, INCAR and KPOINTS ok, starting setup
 FFT: planning ...
 WAVECAR not read
 WARNING: random wavefunctions but no delay for mixing, default for NELMDL
 entering main loop
       N       E                     dE             d eps       ncg     rms          rms(c)
DAV:   1     0.120279738161E+04    0.12028E+04   -0.78290E+04  4128   0.124E+03
DAV:   2    -0.345944671672E+03   -0.15487E+04   -0.15022E+04  4128   0.278E+02
DAV:   3    -0.572702482072E+03   -0.22676E+03   -0.21017E+03  5992   0.980E+01
DAV:   4    -0.590876044601E+03   -0.18174E+02   -0.17034E+02  6000   0.289E+01
DAV:   5    -0.591618397078E+03   -0.74235E+00   -0.71936E+00  5904   0.466E+00    0.107E+02
DAV:   6    -0.139159474738E+04   -0.79998E+03   -0.79460E+03  8136   0.156E+02    0.135E+02
DAV:   7    -0.603759035632E+03    0.78784E+03   -0.94154E+03  7560   0.161E+02    0.649E+01
DAV:   8    -0.547525581355E+03    0.56233E+02   -0.19566E+03  6552   0.138E+02    0.480E+01
DAV:   9    -0.570611519611E+03   -0.23086E+02   -0.64619E+02  7468   0.708E+01    0.498E+01
DAV:  10    -0.534724736716E+03    0.35887E+02   -0.24752E+02  7240   0.431E+01    0.404E+01
DAV:  11    -0.526238297086E+03    0.84864E+01   -0.49143E+01  6648   0.171E+01    0.349E+01
DAV:  12    -0.523588919497E+03    0.26494E+01   -0.49889E+00  6376   0.543E+00    0.320E+01
DAV:  13    -0.519528563738E+03    0.40604E+01   -0.48057E+00  6048   0.583E+00    0.254E+01
DAV:  14    -0.515354282308E+03    0.41743E+01   -0.11239E+01  6320   0.875E+00    0.174E+01
DAV:  15    -0.513505850813E+03    0.18484E+01   -0.44020E+00  6224   0.565E+00    0.134E+01
DAV:  16    -0.512947226152E+03    0.55862E+00   -0.26884E+00  6200   0.445E+00    0.119E+01
DAV:  17    -0.511998218728E+03    0.94901E+00   -0.12894E+00  5448   0.335E+00    0.877E+00
DAV:  18    -0.511328890646E+03    0.66933E+00   -0.26044E+00  6312   0.425E+00    0.552E+00
DAV:  19    -0.510972517555E+03    0.35637E+00   -0.12290E+00  5976   0.317E+00    0.262E+00
DAV:  20    -0.510914377760E+03    0.58140E-01   -0.49070E-01  6064   0.197E+00    0.136E+00
DAV:  21    -0.510909883770E+03    0.44940E-02   -0.27334E-01  6368   0.135E+00    0.126E+00
DAV:  22    -0.510905427140E+03    0.44566E-02   -0.15440E-01  6320   0.996E-01    0.126E+00
DAV:  23    -0.510890534343E+03    0.14893E-01   -0.84975E-02  6456   0.737E-01    0.658E-01
DAV:  24    -0.510887790274E+03    0.27441E-02   -0.29405E-02  5648   0.496E-01    0.289E-01
DAV:  25    -0.510887335887E+03    0.45439E-03   -0.94890E-03  6336   0.250E-01    0.182E-01
DAV:  26    -0.510887778098E+03   -0.44221E-03   -0.58017E-03  5792   0.207E-01    0.264E-01
DAV:  27    -0.510887013629E+03    0.76447E-03   -0.29859E-03  6024   0.146E-01    0.132E-01
DAV:  28    -0.510886906069E+03    0.10756E-03   -0.12279E-03  6248   0.935E-02    0.516E-02
DAV:  29    -0.510886895089E+03    0.10980E-04   -0.24895E-04  6232   0.444E-02    0.284E-02
DAV:  30    -0.510886884745E+03    0.10344E-04   -0.71660E-05  5944   0.239E-02    0.170E-02
DAV:  31    -0.510886883759E+03    0.98589E-06   -0.63761E-05  5536   0.222E-02    0.248E-02
DAV:  32    -0.510886874099E+03    0.96606E-05   -0.30029E-05  4736   0.144E-02    0.166E-02
DAV:  33    -0.510886868558E+03    0.55403E-05   -0.74443E-06  2632   0.101E-02    0.856E-03
DAV:  34    -0.510886867704E+03    0.85430E-06   -0.32063E-06  2504   0.366E-03
   1 F= -.51088687E+03 E0= -.51080821E+03  d E =-.157318E+00
Distance=2.000
 running on   16 total cores
 distrk:  each k-point on    8 cores,    2 groups
 distr:  one band on    4 cores,    2 groups
 using from now: INCAR     
 vasp.5.4.4.18Apr17-6-g9f103f2a35 (build Nov 27 2019 20:08:17) complex          
  
 POSCAR found type information on POSCAR  Ti
 POSCAR found :  1 types and      32 ions
 scaLAPACK will be used

 ----------------------------------------------------------------------------- 
|                                                                             |
|           W    W    AA    RRRRR   N    N  II  N    N   GGGG   !!!           |
|           W    W   A  A   R    R  NN   N  II  NN   N  G    G  !!!           |
|           W    W  A    A  R    R  N N  N  II  N N  N  G       !!!           |
|           W WW W  AAAAAA  RRRRR   N  N N  II  N  N N  G  GGG   !            |
|           WW  WW  A    A  R   R   N   NN  II  N   NN  G    G                |
|           W    W  A    A  R    R  N    N  II  N    N   GGGG   !!!           |
|                                                                             |
|      You have enabled k-point parallelism (KPAR>1).                         |
|      This developmental code was originally  written by Paul Kent at ORNL,  |
|      and carefully double checked in Vienna.                                |
|      GW as well as linear response parallelism added by Martijn Marsman     |
|      and Georg Kresse.                                                      |
|      Carefully verify results versus KPAR=1.                                |
|      Report problems to Paul Kent and Vienna.                               |
|                                                                             |
 ----------------------------------------------------------------------------- 

 LDA part: xc-table for Pade appr. of Perdew
 POSCAR found type information on POSCAR  Ti
 POSCAR found :  1 types and      32 ions
 POSCAR, INCAR and KPOINTS ok, starting setup
 FFT: planning ...
 WAVECAR not read
 entering main loop
       N       E                     dE             d eps       ncg     rms          rms(c)
DAV:   1     0.591029643820E+03    0.59103E+03   -0.36163E+04  1968   0.110E+03
DAV:   2    -0.165986506532E+03   -0.75702E+03   -0.72886E+03  1968   0.243E+02
DAV:   3    -0.277366219052E+03   -0.11138E+03   -0.10490E+03  3080   0.842E+01
DAV:   4    -0.286551398933E+03   -0.91852E+01   -0.85421E+01  3040   0.264E+01
DAV:   5    -0.287112439648E+03   -0.56104E+00   -0.53537E+00  3192   0.543E+00    0.669E+01
DAV:   6    -0.425377797264E+03   -0.13827E+03   -0.23415E+03  3680   0.965E+01    0.842E+01
DAV:   7    -0.249156292294E+03    0.17622E+03   -0.25545E+03  3416   0.155E+02    0.297E+01
DAV:   8    -0.254140619328E+03   -0.49843E+01   -0.50208E+02  3060   0.679E+01    0.315E+01
DAV:   9    -0.236174054461E+03    0.17967E+02   -0.10183E+02  3024   0.306E+01    0.198E+01
DAV:  10    -0.235641635732E+03    0.53242E+00   -0.11057E+01  3232   0.738E+00    0.177E+01
DAV:  11    -0.237176692911E+03   -0.15351E+01   -0.41341E+00  3248   0.494E+00    0.197E+01
DAV:  12    -0.234157247152E+03    0.30194E+01   -0.47771E+00  2952   0.799E+00    0.143E+01
DAV:  13    -0.230667035776E+03    0.34902E+01   -0.94719E+00  2880   0.113E+01    0.640E+00
DAV:  14    -0.230288044101E+03    0.37899E+00   -0.23104E+00  3248   0.385E+00    0.448E+00
DAV:  15    -0.230299992140E+03   -0.11948E-01   -0.12853E+00  2864   0.407E+00    0.477E+00
DAV:  16    -0.230026292434E+03    0.27370E+00   -0.23792E+00  3096   0.400E+00    0.180E+00
DAV:  17    -0.230021390435E+03    0.49020E-02   -0.14305E-01  3000   0.122E+00    0.113E+00
DAV:  18    -0.230002765751E+03    0.18625E-01   -0.10779E-01  3152   0.927E-01    0.398E-01
DAV:  19    -0.230003246182E+03   -0.48043E-03   -0.24134E-02  3288   0.374E-01    0.243E-01
DAV:  20    -0.230005234675E+03   -0.19885E-02   -0.15601E-02  2912   0.453E-01    0.235E-01
DAV:  21    -0.230006271114E+03   -0.10364E-02   -0.70039E-03  2800   0.280E-01    0.145E-01
DAV:  22    -0.230007755563E+03   -0.14844E-02   -0.33417E-03  2880   0.160E-01    0.802E-02
DAV:  23    -0.230008704044E+03   -0.94848E-03   -0.47472E-04  2392   0.734E-02    0.665E-02
DAV:  24    -0.230008881698E+03   -0.17765E-03   -0.31086E-04  2984   0.523E-02    0.204E-02
DAV:  25    -0.230008946088E+03   -0.64391E-04   -0.97905E-05  2776   0.304E-02    0.113E-02
DAV:  26    -0.230008950731E+03   -0.46426E-05   -0.14104E-05  1960   0.103E-02
   1 F= -.23000895E+03 E0= -.22995112E+03  d E =-.115653E+00
 running on   16 total cores
 distrk:  each k-point on    8 cores,    2 groups
 distr:  one band on    4 cores,    2 groups
 using from now: INCAR     
 vasp.5.4.4.18Apr17-6-g9f103f2a35 (build Nov 27 2019 20:08:17) complex          
  
 POSCAR found type information on POSCAR  Ti
 POSCAR found :  1 types and      36 ions
 scaLAPACK will be used

 ----------------------------------------------------------------------------- 
|                                                                             |
|           W    W    AA    RRRRR   N    N  II  N    N   GGGG   !!!           |
|           W    W   A  A   R    R  NN   N  II  NN   N  G    G  !!!           |
|           W    W  A    A  R    R  N N  N  II  N N  N  G       !!!           |
|           W WW W  AAAAAA  RRRRR   N  N N  II  N  N N  G  GGG   !            |
|           WW  WW  A    A  R   R   N   NN  II  N   NN  G    G                |
|           W    W  A    A  R    R  N    N  II  N    N   GGGG   !!!           |
|                                                                             |
|      You have enabled k-point parallelism (KPAR>1).                         |
|      This developmental code was originally  written by Paul Kent at ORNL,  |
|      and carefully double checked in Vienna.                                |
|      GW as well as linear response parallelism added by Martijn Marsman     |
|      and Georg Kresse.                                                      |
|      Carefully verify results versus KPAR=1.                                |
|      Report problems to Paul Kent and Vienna.                               |
|                                                                             |
 ----------------------------------------------------------------------------- 

 LDA part: xc-table for Pade appr. of Perdew
 POSCAR found type information on POSCAR  Ti
 POSCAR found :  1 types and      36 ions
 POSCAR, INCAR and KPOINTS ok, starting setup
 FFT: planning ...
 WAVECAR not read
 WARNING: random wavefunctions but no delay for mixing, default for NELMDL
 entering main loop
       N       E                     dE             d eps       ncg     rms          rms(c)
DAV:   1     0.735413338863E+03    0.73541E+03   -0.41861E+04  2208   0.113E+03
DAV:   2    -0.190850034805E+03   -0.92626E+03   -0.88935E+03  2208   0.253E+02
DAV:   3    -0.324892837412E+03   -0.13404E+03   -0.12350E+03  3216   0.918E+01
DAV:   4    -0.334230554586E+03   -0.93377E+01   -0.85939E+01  3160   0.291E+01
DAV:   5    -0.334744700440E+03   -0.51415E+00   -0.49252E+00  3576   0.555E+00    0.824E+01
DAV:   6    -0.537289155226E+03   -0.20254E+03   -0.29377E+03  4176   0.958E+01    0.110E+02
DAV:   7    -0.292819114841E+03    0.24447E+03   -0.44851E+03  4096   0.166E+02    0.371E+01
DAV:   8    -0.280716910293E+03    0.12102E+02   -0.49063E+02  3208   0.764E+01    0.368E+01
DAV:   9    -0.276231941056E+03    0.44850E+01   -0.33246E+01  3640   0.132E+01    0.304E+01
DAV:  10    -0.279394757108E+03   -0.31628E+01   -0.30672E+00  3360   0.455E+00    0.339E+01
DAV:  11    -0.264689502057E+03    0.14705E+02   -0.35374E+01  3152   0.209E+01    0.118E+01
DAV:  12    -0.263223696554E+03    0.14658E+01   -0.50428E+00  3512   0.687E+00    0.684E+00
DAV:  13    -0.262844639278E+03    0.37906E+00   -0.61633E-01  3040   0.281E+00    0.518E+00
DAV:  14    -0.262519114637E+03    0.32552E+00   -0.10881E+00  2844   0.383E+00    0.283E+00
DAV:  15    -0.262473631801E+03    0.45483E-01   -0.15568E-01  3600   0.102E+00    0.171E+00
DAV:  16    -0.262452700210E+03    0.20932E-01   -0.72700E-02  3552   0.858E-01    0.817E-01
DAV:  17    -0.262447887986E+03    0.48122E-02   -0.97553E-02  3528   0.785E-01    0.387E-01
DAV:  18    -0.262461832727E+03   -0.13945E-01   -0.12926E-01  3072   0.121E+00    0.837E-01
DAV:  19    -0.262455365590E+03    0.64671E-02   -0.42598E-02  3128   0.645E-01    0.307E-01
DAV:  20    -0.262456698584E+03   -0.13330E-02   -0.37346E-03  2468   0.233E-01    0.132E-01
DAV:  21    -0.262457978672E+03   -0.12801E-02   -0.15197E-03  3008   0.122E-01    0.693E-02
DAV:  22    -0.262458723183E+03   -0.74451E-03   -0.38714E-04  2556   0.704E-02    0.292E-02
DAV:  23    -0.262458792598E+03   -0.69415E-04   -0.10919E-04  3104   0.280E-02    0.249E-02
DAV:  24    -0.262458794253E+03   -0.16549E-05   -0.47873E-05  3080   0.220E-02
   1 F= -.26245879E+03 E0= -.26240635E+03  d E =-.104897E+00
 running on   16 total cores
 distrk:  each k-point on    8 cores,    2 groups
 distr:  one band on    4 cores,    2 groups
 using from now: INCAR     
 vasp.5.4.4.18Apr17-6-g9f103f2a35 (build Nov 27 2019 20:08:17) complex          
  
 POSCAR found type information on POSCAR  Ti
 POSCAR found :  1 types and      68 ions
 scaLAPACK will be used

 ----------------------------------------------------------------------------- 
|                                                                             |
|           W    W    AA    RRRRR   N    N  II  N    N   GGGG   !!!           |
|           W    W   A  A   R    R  NN   N  II  NN   N  G    G  !!!           |
|           W    W  A    A  R    R  N N  N  II  N N  N  G       !!!           |
|           W WW W  AAAAAA  RRRRR   N  N N  II  N  N N  G  GGG   !            |
|           WW  WW  A    A  R   R   N   NN  II  N   NN  G    G                |
|           W    W  A    A  R    R  N    N  II  N    N   GGGG   !!!           |
|                                                                             |
|      You have enabled k-point parallelism (KPAR>1).                         |
|      This developmental code was originally  written by Paul Kent at ORNL,  |
|      and carefully double checked in Vienna.                                |
|      GW as well as linear response parallelism added by Martijn Marsman     |
|      and Georg Kresse.                                                      |
|      Carefully verify results versus KPAR=1.                                |
|      Report problems to Paul Kent and Vienna.                               |
|                                                                             |
 ----------------------------------------------------------------------------- 

 LDA part: xc-table for Pade appr. of Perdew
 POSCAR found type information on POSCAR  Ti
 POSCAR found :  1 types and      68 ions
 POSCAR, INCAR and KPOINTS ok, starting setup
 FFT: planning ...
 WAVECAR not read
 WARNING: random wavefunctions but no delay for mixing, default for NELMDL
 entering main loop
       N       E                     dE             d eps       ncg     rms          rms(c)
DAV:   1     0.119564970994E+04    0.11956E+04   -0.78162E+04  4128   0.124E+03
DAV:   2    -0.346784120179E+03   -0.15424E+04   -0.14958E+04  4128   0.277E+02
DAV:   3    -0.573273007799E+03   -0.22649E+03   -0.20979E+03  6008   0.976E+01
DAV:   4    -0.591732171593E+03   -0.18459E+02   -0.17273E+02  6064   0.288E+01
DAV:   5    -0.592456402607E+03   -0.72423E+00   -0.70319E+00  5920   0.463E+00    0.107E+02
DAV:   6    -0.140428254564E+04   -0.81183E+03   -0.80351E+03  8144   0.158E+02    0.133E+02
DAV:   7    -0.605266322387E+03    0.79902E+03   -0.93034E+03  7560   0.159E+02    0.659E+01
DAV:   8    -0.543782655658E+03    0.61484E+02   -0.20001E+03  6504   0.140E+02    0.455E+01
DAV:   9    -0.576180756078E+03   -0.32398E+02   -0.65991E+02  7488   0.686E+01    0.505E+01
DAV:  10    -0.535605380698E+03    0.40575E+02   -0.25899E+02  7256   0.438E+01    0.403E+01
DAV:  11    -0.528412049834E+03    0.71933E+01   -0.49745E+01  6640   0.165E+01    0.358E+01
DAV:  12    -0.525183958798E+03    0.32281E+01   -0.63789E+00  6488   0.584E+00    0.324E+01
DAV:  13    -0.521983803554E+03    0.32002E+01   -0.20458E+00  5720   0.387E+00    0.279E+01
DAV:  14    -0.517109826888E+03    0.48740E+01   -0.13224E+01  6392   0.923E+00    0.190E+01
DAV:  15    -0.514825693656E+03    0.22841E+01   -0.39888E+00  6248   0.550E+00    0.149E+01
DAV:  16    -0.514166885063E+03    0.65881E+00   -0.11861E+00  6168   0.302E+00    0.132E+01
DAV:  17    -0.512498085345E+03    0.16688E+01   -0.27804E+00  5408   0.475E+00    0.819E+00
DAV:  18    -0.511804401090E+03    0.69368E+00   -0.33944E+00  6376   0.483E+00    0.477E+00
DAV:  19    -0.511554892625E+03    0.24951E+00   -0.84694E-01  6184   0.264E+00    0.267E+00
DAV:  20    -0.511521734967E+03    0.33158E-01   -0.21277E-01  6248   0.126E+00    0.210E+00
DAV:  21    -0.511536976331E+03   -0.15241E-01   -0.24423E-01  6312   0.119E+00    0.239E+00
DAV:  22    -0.511484081878E+03    0.52894E-01   -0.25881E-01  6384   0.128E+00    0.167E+00
DAV:  23    -0.511457535831E+03    0.26546E-01   -0.17394E-01  5864   0.118E+00    0.636E-01
DAV:  24    -0.511454618362E+03    0.29175E-02   -0.23224E-02  5856   0.468E-01    0.399E-01
DAV:  25    -0.511454329983E+03    0.28838E-03   -0.59772E-03  6328   0.188E-01    0.349E-01
DAV:  26    -0.511455356646E+03   -0.10267E-02   -0.52283E-03  6272   0.186E-01    0.429E-01
DAV:  27    -0.511453860756E+03    0.14959E-02   -0.10171E-02  5616   0.277E-01    0.155E-01
DAV:  28    -0.511453723589E+03    0.13717E-03   -0.16297E-03  6008   0.119E-01    0.749E-02
DAV:  29    -0.511453685698E+03    0.37891E-04   -0.30983E-04  6304   0.442E-02    0.501E-02
DAV:  30    -0.511453685717E+03   -0.18703E-07   -0.19742E-04  6272   0.381E-02    0.481E-02
DAV:  31    -0.511453665139E+03    0.20578E-04   -0.10509E-04  6264   0.277E-02    0.363E-02
DAV:  32    -0.511453649078E+03    0.16061E-04   -0.53877E-05  5424   0.199E-02    0.202E-02
DAV:  33    -0.511453642610E+03    0.64672E-05   -0.11098E-05  3160   0.116E-02    0.127E-02
DAV:  34    -0.511453641740E+03    0.87031E-06   -0.50897E-06  2544   0.602E-03
   1 F= -.51145364E+03 E0= -.51137435E+03  d E =-.158590E+00
Distance=2.500
 running on   16 total cores
 distrk:  each k-point on    8 cores,    2 groups
 distr:  one band on    4 cores,    2 groups
 using from now: INCAR     
 vasp.5.4.4.18Apr17-6-g9f103f2a35 (build Nov 27 2019 20:08:17) complex          
  
 POSCAR found type information on POSCAR  Ti
 POSCAR found :  1 types and      32 ions
 scaLAPACK will be used

 ----------------------------------------------------------------------------- 
|                                                                             |
|           W    W    AA    RRRRR   N    N  II  N    N   GGGG   !!!           |
|           W    W   A  A   R    R  NN   N  II  NN   N  G    G  !!!           |
|           W    W  A    A  R    R  N N  N  II  N N  N  G       !!!           |
|           W WW W  AAAAAA  RRRRR   N  N N  II  N  N N  G  GGG   !            |
|           WW  WW  A    A  R   R   N   NN  II  N   NN  G    G                |
|           W    W  A    A  R    R  N    N  II  N    N   GGGG   !!!           |
|                                                                             |
|      You have enabled k-point parallelism (KPAR>1).                         |
|      This developmental code was originally  written by Paul Kent at ORNL,  |
|      and carefully double checked in Vienna.                                |
|      GW as well as linear response parallelism added by Martijn Marsman     |
|      and Georg Kresse.                                                      |
|      Carefully verify results versus KPAR=1.                                |
|      Report problems to Paul Kent and Vienna.                               |
|                                                                             |
 ----------------------------------------------------------------------------- 

 LDA part: xc-table for Pade appr. of Perdew
 POSCAR found type information on POSCAR  Ti
 POSCAR found :  1 types and      32 ions
 POSCAR, INCAR and KPOINTS ok, starting setup
 FFT: planning ...
 WAVECAR not read
 entering main loop
       N       E                     dE             d eps       ncg     rms          rms(c)
DAV:   1     0.591459535786E+03    0.59146E+03   -0.36112E+04  1968   0.110E+03
DAV:   2    -0.166406196145E+03   -0.75787E+03   -0.72967E+03  1968   0.243E+02
DAV:   3    -0.277604610542E+03   -0.11120E+03   -0.10500E+03  3096   0.843E+01
DAV:   4    -0.286547665529E+03   -0.89431E+01   -0.82943E+01  3072   0.262E+01
DAV:   5    -0.287113352888E+03   -0.56569E+00   -0.53813E+00  3192   0.529E+00    0.670E+01
DAV:   6    -0.425637878614E+03   -0.13852E+03   -0.23488E+03  3680   0.965E+01    0.841E+01
DAV:   7    -0.248846825583E+03    0.17679E+03   -0.25609E+03  3456   0.155E+02    0.296E+01
DAV:   8    -0.253262570882E+03   -0.44157E+01   -0.49160E+02  3022   0.672E+01    0.313E+01
DAV:   9    -0.236136770170E+03    0.17126E+02   -0.99592E+01  3030   0.303E+01    0.197E+01
DAV:  10    -0.235680580221E+03    0.45619E+00   -0.11317E+01  3224   0.736E+00    0.177E+01
DAV:  11    -0.237140871762E+03   -0.14603E+01   -0.40279E+00  3216   0.482E+00    0.197E+01
DAV:  12    -0.233292762207E+03    0.38481E+01   -0.72240E+00  2872   0.101E+01    0.124E+01
DAV:  13    -0.230707611896E+03    0.25852E+01   -0.62639E+00  3006   0.895E+00    0.651E+00
DAV:  14    -0.230287491048E+03    0.42012E+00   -0.22904E+00  3264   0.392E+00    0.454E+00
DAV:  15    -0.230312755240E+03   -0.25264E-01   -0.11084E+00  2888   0.370E+00    0.487E+00
DAV:  16    -0.230022995101E+03    0.28976E+00   -0.24996E+00  3072   0.410E+00    0.171E+00
DAV:  17    -0.230025135018E+03   -0.21399E-02   -0.15217E-01  3016   0.123E+00    0.120E+00
DAV:  18    -0.230003401133E+03    0.21734E-01   -0.11404E-01  3072   0.965E-01    0.389E-01
DAV:  19    -0.230003367690E+03    0.33443E-04   -0.27884E-02  3304   0.418E-01    0.222E-01
DAV:  20    -0.230005515909E+03   -0.21482E-02   -0.13962E-02  2944   0.416E-01    0.229E-01
DAV:  21    -0.230006329690E+03   -0.81378E-03   -0.68259E-03  2784   0.284E-01    0.139E-01
DAV:  22    -0.230007889913E+03   -0.15602E-02   -0.36199E-03  2976   0.161E-01    0.880E-02
DAV:  23    -0.230008794173E+03   -0.90426E-03   -0.46818E-04  2456   0.677E-02    0.577E-02
DAV:  24    -0.230009053951E+03   -0.25978E-03   -0.27305E-04  2952   0.453E-02    0.168E-02
DAV:  25    -0.230009110370E+03   -0.56420E-04   -0.86258E-05  2824   0.255E-02    0.106E-02
DAV:  26    -0.230009113296E+03   -0.29261E-05   -0.11625E-05  1952   0.103E-02
   1 F= -.23000911E+03 E0= -.22995129E+03  d E =-.115653E+00
 running on   16 total cores
 distrk:  each k-point on    8 cores,    2 groups
 distr:  one band on    4 cores,    2 groups
 using from now: INCAR     
 vasp.5.4.4.18Apr17-6-g9f103f2a35 (build Nov 27 2019 20:08:17) complex          
  
 POSCAR found type information on POSCAR  Ti
 POSCAR found :  1 types and      36 ions
 scaLAPACK will be used

 ----------------------------------------------------------------------------- 
|                                                                             |
|           W    W    AA    RRRRR   N    N  II  N    N   GGGG   !!!           |
|           W    W   A  A   R    R  NN   N  II  NN   N  G    G  !!!           |
|           W    W  A    A  R    R  N N  N  II  N N  N  G       !!!           |
|           W WW W  AAAAAA  RRRRR   N  N N  II  N  N N  G  GGG   !            |
|           WW  WW  A    A  R   R   N   NN  II  N   NN  G    G                |
|           W    W  A    A  R    R  N    N  II  N    N   GGGG   !!!           |
|                                                                             |
|      You have enabled k-point parallelism (KPAR>1).                         |
|      This developmental code was originally  written by Paul Kent at ORNL,  |
|      and carefully double checked in Vienna.                                |
|      GW as well as linear response parallelism added by Martijn Marsman     |
|      and Georg Kresse.                                                      |
|      Carefully verify results versus KPAR=1.                                |
|      Report problems to Paul Kent and Vienna.                               |
|                                                                             |
 ----------------------------------------------------------------------------- 

 LDA part: xc-table for Pade appr. of Perdew
 POSCAR found type information on POSCAR  Ti
 POSCAR found :  1 types and      36 ions
 POSCAR, INCAR and KPOINTS ok, starting setup
 FFT: planning ...
 WAVECAR not read
 WARNING: random wavefunctions but no delay for mixing, default for NELMDL
 entering main loop
       N       E                     dE             d eps       ncg     rms          rms(c)
DAV:   1     0.734239265959E+03    0.73424E+03   -0.41707E+04  2208   0.112E+03
DAV:   2    -0.190870074503E+03   -0.92511E+03   -0.88910E+03  2208   0.253E+02
DAV:   3    -0.324941934493E+03   -0.13407E+03   -0.12333E+03  3224   0.917E+01
DAV:   4    -0.334224366969E+03   -0.92824E+01   -0.85476E+01  3160   0.291E+01
DAV:   5    -0.334742696435E+03   -0.51833E+00   -0.49463E+00  3600   0.547E+00    0.824E+01
DAV:   6    -0.536614739690E+03   -0.20187E+03   -0.29352E+03  4172   0.957E+01    0.110E+02
DAV:   7    -0.292615810752E+03    0.24400E+03   -0.44788E+03  4104   0.165E+02    0.371E+01
DAV:   8    -0.280672519181E+03    0.11943E+02   -0.49526E+02  3208   0.769E+01    0.370E+01
DAV:   9    -0.276166538340E+03    0.45060E+01   -0.35629E+01  3720   0.135E+01    0.303E+01
DAV:  10    -0.279613008122E+03   -0.34465E+01   -0.37346E+00  3416   0.504E+00    0.341E+01
DAV:  11    -0.264763485811E+03    0.14850E+02   -0.34450E+01  3124   0.206E+01    0.120E+01
DAV:  12    -0.263346458449E+03    0.14170E+01   -0.46331E+00  3520   0.651E+00    0.730E+00
DAV:  13    -0.262857402582E+03    0.48906E+00   -0.74931E-01  2888   0.320E+00    0.521E+00
DAV:  14    -0.262488209628E+03    0.36919E+00   -0.16182E+00  2840   0.474E+00    0.258E+00
DAV:  15    -0.262462851033E+03    0.25359E-01   -0.14870E-01  3560   0.935E-01    0.148E+00
DAV:  16    -0.262457187815E+03    0.56632E-02   -0.16257E-02  3500   0.392E-01    0.102E+00
DAV:  17    -0.262450330178E+03    0.68576E-02   -0.17827E-01  3480   0.107E+00    0.513E-01
DAV:  18    -0.262458586371E+03   -0.82562E-02   -0.13745E-01  3224   0.121E+00    0.775E-01
DAV:  19    -0.262456279543E+03    0.23068E-02   -0.17911E-02  3200   0.415E-01    0.394E-01
DAV:  20    -0.262456678152E+03   -0.39861E-03   -0.85492E-03  2720   0.342E-01    0.108E-01
DAV:  21    -0.262458220234E+03   -0.15421E-02   -0.10467E-03  2624   0.118E-01    0.676E-02
DAV:  22    -0.262458895372E+03   -0.67514E-03   -0.26199E-04  2648   0.447E-02    0.534E-02
DAV:  23    -0.262458951979E+03   -0.56607E-04   -0.18192E-04  2664   0.532E-02    0.167E-02
DAV:  24    -0.262458957619E+03   -0.56405E-05   -0.53480E-05  3016   0.209E-02    0.815E-03
DAV:  25    -0.262458957694E+03   -0.75103E-07   -0.47347E-06  1776   0.923E-03
   1 F= -.26245896E+03 E0= -.26240650E+03  d E =-.104913E+00
 running on   16 total cores
 distrk:  each k-point on    8 cores,    2 groups
 distr:  one band on    4 cores,    2 groups
 using from now: INCAR     
 vasp.5.4.4.18Apr17-6-g9f103f2a35 (build Nov 27 2019 20:08:17) complex          
  
 POSCAR found type information on POSCAR  Ti
 POSCAR found :  1 types and      68 ions
 scaLAPACK will be used

 ----------------------------------------------------------------------------- 
|                                                                             |
|           W    W    AA    RRRRR   N    N  II  N    N   GGGG   !!!           |
|           W    W   A  A   R    R  NN   N  II  NN   N  G    G  !!!           |
|           W    W  A    A  R    R  N N  N  II  N N  N  G       !!!           |
|           W WW W  AAAAAA  RRRRR   N  N N  II  N  N N  G  GGG   !            |
|           WW  WW  A    A  R   R   N   NN  II  N   NN  G    G                |
|           W    W  A    A  R    R  N    N  II  N    N   GGGG   !!!           |
|                                                                             |
|      You have enabled k-point parallelism (KPAR>1).                         |
|      This developmental code was originally  written by Paul Kent at ORNL,  |
|      and carefully double checked in Vienna.                                |
|      GW as well as linear response parallelism added by Martijn Marsman     |
|      and Georg Kresse.                                                      |
|      Carefully verify results versus KPAR=1.                                |
|      Report problems to Paul Kent and Vienna.                               |
|                                                                             |
 ----------------------------------------------------------------------------- 

 LDA part: xc-table for Pade appr. of Perdew
 POSCAR found type information on POSCAR  Ti
 POSCAR found :  1 types and      68 ions
 POSCAR, INCAR and KPOINTS ok, starting setup
 FFT: planning ...
 WAVECAR not read
 WARNING: random wavefunctions but no delay for mixing, default for NELMDL
 entering main loop
       N       E                     dE             d eps       ncg     rms          rms(c)
DAV:   1     0.119131300878E+04    0.11913E+04   -0.78204E+04  4128   0.124E+03
DAV:   2    -0.348952321926E+03   -0.15403E+04   -0.14938E+04  4128   0.277E+02
DAV:   3    -0.574447762923E+03   -0.22550E+03   -0.20897E+03  6024   0.973E+01
DAV:   4    -0.592659347070E+03   -0.18212E+02   -0.17020E+02  6104   0.285E+01
DAV:   5    -0.593400928989E+03   -0.74158E+00   -0.71790E+00  5944   0.459E+00    0.107E+02
DAV:   6    -0.141724627045E+04   -0.82385E+03   -0.81702E+03  8160   0.160E+02    0.131E+02
DAV:   7    -0.608653941521E+03    0.80859E+03   -0.91705E+03  7560   0.158E+02    0.672E+01
DAV:   8    -0.540599512367E+03    0.68054E+02   -0.20641E+03  6576   0.139E+02    0.440E+01
DAV:   9    -0.583677937536E+03   -0.43078E+02   -0.70328E+02  7440   0.672E+01    0.516E+01
DAV:  10    -0.536877724784E+03    0.46800E+02   -0.27559E+02  7200   0.453E+01    0.405E+01
DAV:  11    -0.531211017508E+03    0.56667E+01   -0.53519E+01  6696   0.163E+01    0.374E+01
DAV:  12    -0.528281744018E+03    0.29293E+01   -0.51985E+00  6544   0.497E+00    0.345E+01
DAV:  13    -0.526313272356E+03    0.19685E+01   -0.81793E-01  5728   0.242E+00    0.321E+01
DAV:  14    -0.518898315573E+03    0.74150E+01   -0.14140E+01  6256   0.960E+00    0.210E+01
DAV:  15    -0.516209865416E+03    0.26885E+01   -0.36743E+00  6176   0.531E+00    0.166E+01
DAV:  16    -0.515404368861E+03    0.80550E+00   -0.84990E-01  5936   0.249E+00    0.147E+01
DAV:  17    -0.513510484693E+03    0.18939E+01   -0.27016E+00  5616   0.465E+00    0.975E+00
DAV:  18    -0.512366785067E+03    0.11437E+01   -0.37590E+00  6256   0.509E+00    0.546E+00
DAV:  19    -0.512147373952E+03    0.21941E+00   -0.84972E-01  6272   0.247E+00    0.416E+00
DAV:  20    -0.511990741863E+03    0.15663E+00   -0.31101E-01  6200   0.142E+00    0.314E+00
DAV:  21    -0.511891589913E+03    0.99152E-01   -0.49738E-01  6200   0.184E+00    0.204E+00
DAV:  22    -0.511859416024E+03    0.32174E-01   -0.32603E-01  6328   0.156E+00    0.138E+00
DAV:  23    -0.511833974587E+03    0.25441E-01   -0.11700E-01  5864   0.954E-01    0.567E-01
DAV:  24    -0.511831712107E+03    0.22625E-02   -0.29144E-02  6480   0.424E-01    0.405E-01
DAV:  25    -0.511831526604E+03    0.18550E-03   -0.74107E-03  6544   0.201E-01    0.380E-01
DAV:  26    -0.511831186946E+03    0.33966E-03   -0.79129E-03  6416   0.222E-01    0.295E-01
DAV:  27    -0.511831006945E+03    0.18000E-03   -0.45636E-03  6344   0.170E-01    0.234E-01
DAV:  28    -0.511830744331E+03    0.26261E-03   -0.17893E-03  6232   0.109E-01    0.138E-01
DAV:  29    -0.511830791079E+03   -0.46748E-04   -0.10862E-03  6320   0.814E-02    0.140E-01
DAV:  30    -0.511830672987E+03    0.11809E-03   -0.34871E-04  6264   0.517E-02    0.107E-01
DAV:  31    -0.511830578665E+03    0.94323E-04   -0.21383E-04  6056   0.368E-02    0.630E-02
DAV:  32    -0.511830553174E+03    0.25491E-04   -0.11487E-04  5216   0.306E-02    0.215E-02
DAV:  33    -0.511830549934E+03    0.32400E-05   -0.20529E-05  4056   0.126E-02
   1 F= -.51183055E+03 E0= -.51175092E+03  d E =-.159252E+00
Distance=3.000
 running on   16 total cores
 distrk:  each k-point on    8 cores,    2 groups
 distr:  one band on    4 cores,    2 groups
 using from now: INCAR     
 vasp.5.4.4.18Apr17-6-g9f103f2a35 (build Nov 27 2019 20:08:17) complex          
  
 POSCAR found type information on POSCAR  Ti
 POSCAR found :  1 types and      32 ions
 scaLAPACK will be used

 ----------------------------------------------------------------------------- 
|                                                                             |
|           W    W    AA    RRRRR   N    N  II  N    N   GGGG   !!!           |
|           W    W   A  A   R    R  NN   N  II  NN   N  G    G  !!!           |
|           W    W  A    A  R    R  N N  N  II  N N  N  G       !!!           |
|           W WW W  AAAAAA  RRRRR   N  N N  II  N  N N  G  GGG   !            |
|           WW  WW  A    A  R   R   N   NN  II  N   NN  G    G                |
|           W    W  A    A  R    R  N    N  II  N    N   GGGG   !!!           |
|                                                                             |
|      You have enabled k-point parallelism (KPAR>1).                         |
|      This developmental code was originally  written by Paul Kent at ORNL,  |
|      and carefully double checked in Vienna.                                |
|      GW as well as linear response parallelism added by Martijn Marsman     |
|      and Georg Kresse.                                                      |
|      Carefully verify results versus KPAR=1.                                |
|      Report problems to Paul Kent and Vienna.                               |
|                                                                             |
 ----------------------------------------------------------------------------- 

 LDA part: xc-table for Pade appr. of Perdew
 POSCAR found type information on POSCAR  Ti
 POSCAR found :  1 types and      32 ions
 POSCAR, INCAR and KPOINTS ok, starting setup
 FFT: planning ...
 WAVECAR not read
 entering main loop
       N       E                     dE             d eps       ncg     rms          rms(c)
DAV:   1     0.592636877763E+03    0.59264E+03   -0.36161E+04  1968   0.110E+03
DAV:   2    -0.166180692086E+03   -0.75882E+03   -0.73043E+03  1968   0.243E+02
DAV:   3    -0.277623801997E+03   -0.11144E+03   -0.10533E+03  3104   0.841E+01
DAV:   4    -0.286570489164E+03   -0.89467E+01   -0.83073E+01  3088   0.261E+01
DAV:   5    -0.287118198822E+03   -0.54771E+00   -0.52149E+00  3192   0.527E+00    0.670E+01
DAV:   6    -0.424750067160E+03   -0.13763E+03   -0.23439E+03  3672   0.964E+01    0.843E+01
DAV:   7    -0.249300482023E+03    0.17545E+03   -0.25809E+03  3440   0.156E+02    0.296E+01
DAV:   8    -0.253064650933E+03   -0.37642E+01   -0.48627E+02  3008   0.671E+01    0.313E+01
DAV:   9    -0.236284117207E+03    0.16781E+02   -0.99145E+01  3032   0.303E+01    0.200E+01
DAV:  10    -0.235678112166E+03    0.60601E+00   -0.11268E+01  3240   0.734E+00    0.177E+01
DAV:  11    -0.237346744581E+03   -0.16686E+01   -0.40522E+00  3288   0.507E+00    0.201E+01
DAV:  12    -0.234098289742E+03    0.32485E+01   -0.59344E+00  3008   0.886E+00    0.142E+01
DAV:  13    -0.230617014059E+03    0.34813E+01   -0.94019E+00  2852   0.112E+01    0.620E+00
DAV:  14    -0.230308024166E+03    0.30899E+00   -0.18374E+00  3256   0.337E+00    0.443E+00
DAV:  15    -0.230232911725E+03    0.75112E-01   -0.14498E+00  2740   0.450E+00    0.425E+00
DAV:  16    -0.230016622011E+03    0.21629E+00   -0.17408E+00  3070   0.345E+00    0.148E+00
DAV:  17    -0.230012574970E+03    0.40470E-02   -0.10846E-01  3016   0.101E+00    0.829E-01
DAV:  18    -0.230002983325E+03    0.95916E-02   -0.48644E-02  3200   0.583E-01    0.335E-01
DAV:  19    -0.230003851822E+03   -0.86850E-03   -0.22356E-02  3272   0.409E-01    0.180E-01
DAV:  20    -0.230005499952E+03   -0.16481E-02   -0.73257E-03  2976   0.306E-01    0.202E-01
DAV:  21    -0.230006326302E+03   -0.82635E-03   -0.47524E-03  2504   0.252E-01    0.101E-01
DAV:  22    -0.230008213685E+03   -0.18874E-02   -0.31541E-03  2968   0.155E-01    0.106E-01
DAV:  23    -0.230008733434E+03   -0.51975E-03   -0.53171E-04  2808   0.790E-02    0.474E-02
DAV:  24    -0.230008932723E+03   -0.19929E-03   -0.24485E-04  3144   0.443E-02    0.241E-02
DAV:  25    -0.230008997628E+03   -0.64906E-04   -0.97442E-05  2656   0.323E-02    0.101E-02
DAV:  26    -0.230009001066E+03   -0.34375E-05   -0.11903E-05  1872   0.101E-02
   1 F= -.23000900E+03 E0= -.22995118E+03  d E =-.115649E+00
 running on   16 total cores
 distrk:  each k-point on    8 cores,    2 groups
 distr:  one band on    4 cores,    2 groups
 using from now: INCAR     
 vasp.5.4.4.18Apr17-6-g9f103f2a35 (build Nov 27 2019 20:08:17) complex          
  
 POSCAR found type information on POSCAR  Ti
 POSCAR found :  1 types and      36 ions
 scaLAPACK will be used

 ----------------------------------------------------------------------------- 
|                                                                             |
|           W    W    AA    RRRRR   N    N  II  N    N   GGGG   !!!           |
|           W    W   A  A   R    R  NN   N  II  NN   N  G    G  !!!           |
|           W    W  A    A  R    R  N N  N  II  N N  N  G       !!!           |
|           W WW W  AAAAAA  RRRRR   N  N N  II  N  N N  G  GGG   !            |
|           WW  WW  A    A  R   R   N   NN  II  N   NN  G    G                |
|           W    W  A    A  R    R  N    N  II  N    N   GGGG   !!!           |
|                                                                             |
|      You have enabled k-point parallelism (KPAR>1).                         |
|      This developmental code was originally  written by Paul Kent at ORNL,  |
|      and carefully double checked in Vienna.                                |
|      GW as well as linear response parallelism added by Martijn Marsman     |
|      and Georg Kresse.                                                      |
|      Carefully verify results versus KPAR=1.                                |
|      Report problems to Paul Kent and Vienna.                               |
|                                                                             |
 ----------------------------------------------------------------------------- 

 LDA part: xc-table for Pade appr. of Perdew
 POSCAR found type information on POSCAR  Ti
 POSCAR found :  1 types and      36 ions
 POSCAR, INCAR and KPOINTS ok, starting setup
 FFT: planning ...
 WAVECAR not read
 WARNING: random wavefunctions but no delay for mixing, default for NELMDL
 entering main loop
       N       E                     dE             d eps       ncg     rms          rms(c)
DAV:   1     0.737297008058E+03    0.73730E+03   -0.41803E+04  2208   0.112E+03
DAV:   2    -0.191948707959E+03   -0.92925E+03   -0.89274E+03  2208   0.253E+02
DAV:   3    -0.325130227772E+03   -0.13318E+03   -0.12278E+03  3216   0.915E+01
DAV:   4    -0.334229882072E+03   -0.90997E+01   -0.84111E+01  3168   0.289E+01
DAV:   5    -0.334742053565E+03   -0.51217E+00   -0.48649E+00  3552   0.544E+00    0.824E+01
DAV:   6    -0.535907478649E+03   -0.20117E+03   -0.29227E+03  4160   0.956E+01    0.110E+02
DAV:   7    -0.293183447831E+03    0.24272E+03   -0.44895E+03  4068   0.165E+02    0.371E+01
DAV:   8    -0.280726435857E+03    0.12457E+02   -0.49191E+02  3160   0.763E+01    0.369E+01
DAV:   9    -0.276271916376E+03    0.44545E+01   -0.33960E+01  3712   0.133E+01    0.305E+01
DAV:  10    -0.278955756399E+03   -0.26838E+01   -0.31588E+00  3400   0.410E+00    0.333E+01
DAV:  11    -0.265110433018E+03    0.13845E+02   -0.32805E+01  3264   0.198E+01    0.126E+01
DAV:  12    -0.263540596134E+03    0.15698E+01   -0.45139E+00  3488   0.662E+00    0.794E+00
DAV:  13    -0.262918235733E+03    0.62236E+00   -0.86930E-01  2988   0.339E+00    0.542E+00
DAV:  14    -0.262518594341E+03    0.39964E+00   -0.13672E+00  2848   0.444E+00    0.282E+00
DAV:  15    -0.262451410706E+03    0.67184E-01   -0.68379E-01  3456   0.245E+00    0.164E+00
DAV:  16    -0.262458906723E+03   -0.74960E-02   -0.51319E-02  3288   0.646E-01    0.142E+00
DAV:  17    -0.262453587708E+03    0.53190E-02   -0.16725E-01  3444   0.110E+00    0.687E-01
DAV:  18    -0.262450588947E+03    0.29988E-02   -0.97009E-02  3272   0.101E+00    0.416E-01
DAV:  19    -0.262455182661E+03   -0.45937E-02   -0.67188E-03  2792   0.282E-01    0.346E-01
DAV:  20    -0.262457348521E+03   -0.21659E-02   -0.17526E-03  3144   0.101E-01    0.229E-01
[...]
DAV:   7    -0.680344214931E+03    0.11674E+04   -0.91824E+03  7672   0.143E+02    0.102E+02
DAV:   8    -0.525221985323E+03    0.15512E+03   -0.37194E+03  6600   0.175E+02    0.419E+01
DAV:   9    -0.579649103293E+03   -0.54427E+02   -0.11095E+03  7608   0.742E+01    0.512E+01
DAV:  10    -0.552757237268E+03    0.26892E+02   -0.34477E+02  7072   0.456E+01    0.435E+01
DAV:  11    -0.535036805785E+03    0.17720E+02   -0.65430E+01  6864   0.200E+01    0.363E+01
DAV:  12    -0.529212916854E+03    0.58239E+01   -0.11825E+01  6704   0.691E+00    0.321E+01
DAV:  13    -0.519319189901E+03    0.98937E+01   -0.35541E+01  6616   0.144E+01    0.217E+01
DAV:  14    -0.519136098507E+03    0.18309E+00   -0.31062E+01  6880   0.144E+01    0.205E+01
DAV:  15    -0.517411883399E+03    0.17242E+01   -0.34163E+00  6216   0.478E+00    0.179E+01
DAV:  16    -0.515938927946E+03    0.14730E+01   -0.89907E-01  6432   0.224E+00    0.158E+01
DAV:  17    -0.513920643373E+03    0.20183E+01   -0.26445E+00  6320   0.375E+00    0.129E+01
DAV:  18    -0.513356924554E+03    0.56372E+00   -0.33443E+00  6256   0.422E+00    0.119E+01
DAV:  19    -0.511770434126E+03    0.15865E+01   -0.15692E+00  6720   0.278E+00    0.829E+00
DAV:  20    -0.511065877670E+03    0.70456E+00   -0.80806E-01  6480   0.217E+00    0.620E+00
DAV:  21    -0.510687394897E+03    0.37848E+00   -0.10338E+00  6464   0.253E+00    0.470E+00
DAV:  22    -0.510523185892E+03    0.16421E+00   -0.64814E-01  6432   0.202E+00    0.387E+00
DAV:  23    -0.510356161770E+03    0.16702E+00   -0.29932E-01  6512   0.131E+00    0.278E+00
DAV:  24    -0.510223299323E+03    0.13286E+00   -0.25607E-01  6792   0.108E+00    0.129E+00
DAV:  25    -0.510205643561E+03    0.17656E-01   -0.76309E-02  6504   0.621E-01    0.956E-01
DAV:  26    -0.510200742992E+03    0.49006E-02   -0.36238E-02  6432   0.454E-01    0.810E-01
DAV:  27    -0.510195112168E+03    0.56308E-02   -0.14555E-02  6512   0.278E-01    0.628E-01
DAV:  28    -0.510191382068E+03    0.37301E-02   -0.17852E-02  6576   0.318E-01    0.410E-01
DAV:  29    -0.510191447463E+03   -0.65395E-04   -0.14325E-02  6312   0.300E-01    0.383E-01
DAV:  30    -0.510190011651E+03    0.14358E-02   -0.83220E-03  6352   0.204E-01    0.234E-01
DAV:  31    -0.510189670070E+03    0.34158E-03   -0.15906E-03  6536   0.888E-02    0.175E-01
DAV:  32    -0.510189616911E+03    0.53159E-04   -0.65381E-04  6648   0.576E-02    0.144E-01
DAV:  33    -0.510189541362E+03    0.75549E-04   -0.78086E-04  6208   0.632E-02    0.104E-01
DAV:  34    -0.510189501450E+03    0.39913E-04   -0.28938E-04  6424   0.410E-02    0.692E-02
DAV:  35    -0.510189483610E+03    0.17839E-04   -0.74664E-05  6008   0.228E-02    0.484E-02
DAV:  36    -0.510189475171E+03    0.84393E-05   -0.35768E-05  5120   0.143E-02    0.292E-02
DAV:  37    -0.510189476321E+03   -0.11505E-05   -0.27778E-05  4592   0.125E-02
   1 F= -.51018948E+03 E0= -.51010948E+03  d E =-.159988E+00
Distance=9.500
 running on   16 total cores
 distrk:  each k-point on    8 cores,    2 groups
 distr:  one band on    4 cores,    2 groups
 using from now: INCAR     
 vasp.5.4.4.18Apr17-6-g9f103f2a35 (build Nov 27 2019 20:08:17) complex          
  
 POSCAR found type information on POSCAR  Ti
 POSCAR found :  1 types and      32 ions
 scaLAPACK will be used

 ----------------------------------------------------------------------------- 
|                                                                             |
|           W    W    AA    RRRRR   N    N  II  N    N   GGGG   !!!           |
|           W    W   A  A   R    R  NN   N  II  NN   N  G    G  !!!           |
|           W    W  A    A  R    R  N N  N  II  N N  N  G       !!!           |
|           W WW W  AAAAAA  RRRRR   N  N N  II  N  N N  G  GGG   !            |
|           WW  WW  A    A  R   R   N   NN  II  N   NN  G    G                |
|           W    W  A    A  R    R  N    N  II  N    N   GGGG   !!!           |
|                                                                             |
|      You have enabled k-point parallelism (KPAR>1).                         |
|      This developmental code was originally  written by Paul Kent at ORNL,  |
|      and carefully double checked in Vienna.                                |
|      GW as well as linear response parallelism added by Martijn Marsman     |
|      and Georg Kresse.                                                      |
|      Carefully verify results versus KPAR=1.                                |
|      Report problems to Paul Kent and Vienna.                               |
|                                                                             |
 ----------------------------------------------------------------------------- 

 LDA part: xc-table for Pade appr. of Perdew
 POSCAR found type information on POSCAR  Ti
 POSCAR found :  1 types and      32 ions
 POSCAR, INCAR and KPOINTS ok, starting setup
 FFT: planning ...
 WAVECAR not read
 entering main loop
       N       E                     dE             d eps       ncg     rms          rms(c)
DAV:   1     0.596307403158E+03    0.59631E+03   -0.35902E+04  1968   0.108E+03
DAV:   2    -0.165464067792E+03   -0.76177E+03   -0.73334E+03  1968   0.241E+02
DAV:   3    -0.277095944323E+03   -0.11163E+03   -0.10523E+03  3072   0.832E+01
DAV:   4    -0.286520684079E+03   -0.94247E+01   -0.87537E+01  3096   0.264E+01
DAV:   5    -0.287113382095E+03   -0.59270E+00   -0.56364E+00  3200   0.552E+00    0.670E+01
DAV:   6    -0.419407949454E+03   -0.13229E+03   -0.22728E+03  3664   0.954E+01    0.836E+01
DAV:   7    -0.251668300896E+03    0.16774E+03   -0.26099E+03  3416   0.157E+02    0.297E+01
DAV:   8    -0.251982758322E+03   -0.31446E+00   -0.45957E+02  3020   0.653E+01    0.308E+01
DAV:   9    -0.236690016405E+03    0.15293E+02   -0.92612E+01  3034   0.287E+01    0.202E+01
DAV:  10    -0.236080378527E+03    0.60964E+00   -0.10157E+01  3248   0.700E+00    0.182E+01
DAV:  11    -0.237421972538E+03   -0.13416E+01   -0.36530E+00  3256   0.469E+00    0.201E+01
DAV:  12    -0.234094536781E+03    0.33274E+01   -0.68420E+00  3040   0.944E+00    0.142E+01
DAV:  13    -0.230688623441E+03    0.34059E+01   -0.88091E+00  2854   0.108E+01    0.662E+00
DAV:  14    -0.230332451034E+03    0.35617E+00   -0.16889E+00  3296   0.326E+00    0.475E+00
DAV:  15    -0.230225552090E+03    0.10690E+00   -0.14013E+00  2752   0.440E+00    0.432E+00
DAV:  16    -0.230032606417E+03    0.19295E+00   -0.18201E+00  3104   0.347E+00    0.169E+00
DAV:  17    -0.230022331470E+03    0.10275E-01   -0.11535E-01  3046   0.988E-01    0.989E-01
DAV:  18    -0.230006596956E+03    0.15735E-01   -0.70647E-02  3184   0.677E-01    0.309E-01
DAV:  19    -0.230006485038E+03    0.11192E-03   -0.18852E-02  3256   0.389E-01    0.195E-01
DAV:  20    -0.230006137870E+03    0.34717E-03   -0.49390E-03  3056   0.239E-01    0.104E-01
DAV:  21    -0.230006087212E+03    0.50658E-04   -0.17983E-03  2480   0.155E-01    0.682E-02
DAV:  22    -0.230007571974E+03   -0.14848E-02   -0.20560E-03  3040   0.117E-01    0.102E-01
DAV:  23    -0.230008203579E+03   -0.63160E-03   -0.10775E-03  2968   0.976E-02    0.404E-02
DAV:  24    -0.230008660230E+03   -0.45665E-03   -0.18421E-04  2488   0.468E-02    0.154E-02
DAV:  25    -0.230008886239E+03   -0.22601E-03   -0.75523E-05  2520   0.280E-02    0.199E-02
DAV:  26    -0.230008921285E+03   -0.35046E-04   -0.22272E-05  2040   0.136E-02    0.799E-03
DAV:  27    -0.230008926884E+03   -0.55994E-05   -0.45830E-06  1520   0.654E-03    0.558E-03
DAV:  28    -0.230008927789E+03   -0.90485E-06   -0.13617E-06  1392   0.370E-03
   1 F= -.23000893E+03 E0= -.22995111E+03  d E =-.115637E+00
 running on   16 total cores
 distrk:  each k-point on    8 cores,    2 groups
 distr:  one band on    4 cores,    2 groups
 using from now: INCAR     
 vasp.5.4.4.18Apr17-6-g9f103f2a35 (build Nov 27 2019 20:08:17) complex          
  
 POSCAR found type information on POSCAR  Ti
 POSCAR found :  1 types and      36 ions
 scaLAPACK will be used

 ----------------------------------------------------------------------------- 
|                                                                             |
|           W    W    AA    RRRRR   N    N  II  N    N   GGGG   !!!           |
|           W    W   A  A   R    R  NN   N  II  NN   N  G    G  !!!           |
|           W    W  A    A  R    R  N N  N  II  N N  N  G       !!!           |
|           W WW W  AAAAAA  RRRRR   N  N N  II  N  N N  G  GGG   !            |
|           WW  WW  A    A  R   R   N   NN  II  N   NN  G    G                |
|           W    W  A    A  R    R  N    N  II  N    N   GGGG   !!!           |
|                                                                             |
|      You have enabled k-point parallelism (KPAR>1).                         |
|      This developmental code was originally  written by Paul Kent at ORNL,  |
|      and carefully double checked in Vienna.                                |
|      GW as well as linear response parallelism added by Martijn Marsman     |
|      and Georg Kresse.                                                      |
|      Carefully verify results versus KPAR=1.                                |
|      Report problems to Paul Kent and Vienna.                               |
|                                                                             |
 ----------------------------------------------------------------------------- 

 LDA part: xc-table for Pade appr. of Perdew
 POSCAR found type information on POSCAR  Ti
 POSCAR found :  1 types and      36 ions
 POSCAR, INCAR and KPOINTS ok, starting setup
 FFT: planning ...
 WAVECAR not read
 WARNING: random wavefunctions but no delay for mixing, default for NELMDL
 entering main loop
       N       E                     dE             d eps       ncg     rms          rms(c)
DAV:   1     0.749541923730E+03    0.74954E+03   -0.41824E+04  2208   0.111E+03
DAV:   2    -0.190710780036E+03   -0.94025E+03   -0.90313E+03  2208   0.251E+02
DAV:   3    -0.324885644506E+03   -0.13417E+03   -0.12370E+03  3256   0.907E+01
DAV:   4    -0.334254898121E+03   -0.93693E+01   -0.86090E+01  3200   0.291E+01
DAV:   5    -0.334747406097E+03   -0.49251E+00   -0.47592E+00  3560   0.557E+00    0.824E+01
DAV:   6    -0.527536992214E+03   -0.19279E+03   -0.28255E+03  4164   0.944E+01    0.109E+02
DAV:   7    -0.296133230259E+03    0.23140E+03   -0.45743E+03  4052   0.168E+02    0.379E+01
DAV:   8    -0.281698173402E+03    0.14435E+02   -0.50897E+02  3216   0.778E+01    0.372E+01
DAV:   9    -0.277156290739E+03    0.45419E+01   -0.33807E+01  3688   0.136E+01    0.311E+01
DAV:  10    -0.279520571692E+03   -0.23643E+01   -0.24945E+00  3372   0.356E+00    0.336E+01
DAV:  11    -0.265180790026E+03    0.14340E+02   -0.34505E+01  3292   0.197E+01    0.129E+01
DAV:  12    -0.263472736836E+03    0.17081E+01   -0.52612E+00  3496   0.715E+00    0.752E+00
DAV:  13    -0.263165343161E+03    0.30739E+00   -0.35311E-01  3304   0.195E+00    0.637E+00
DAV:  14    -0.262636230166E+03    0.52911E+00   -0.13789E+00  2848   0.450E+00    0.367E+00
DAV:  15    -0.262485716283E+03    0.15051E+00   -0.18483E+00  3224   0.454E+00    0.265E+00
DAV:  16    -0.262483750015E+03    0.19663E-02   -0.23110E-01  3052   0.144E+00    0.184E+00
DAV:  17    -0.262454278086E+03    0.29472E-01   -0.18128E-01  3440   0.115E+00    0.692E-01
DAV:  18    -0.262451709266E+03    0.25688E-02   -0.17163E-02  2872   0.456E-01    0.267E-01
DAV:  19    -0.262455879090E+03   -0.41698E-02   -0.47104E-02  3176   0.737E-01    0.525E-01
DAV:  20    -0.262457116440E+03   -0.12373E-02   -0.10075E-02  3328   0.309E-01    0.391E-01
DAV:  21    -0.262456635598E+03    0.48084E-03   -0.57152E-03  3064   0.265E-01    0.212E-01
DAV:  22    -0.262458080463E+03   -0.14449E-02   -0.39581E-03  3200   0.206E-01    0.580E-02
DAV:  23    -0.262458451159E+03   -0.37070E-03   -0.57057E-04  2672   0.920E-02    0.779E-02
DAV:  24    -0.262458657378E+03   -0.20622E-03   -0.26341E-04  2456   0.601E-02    0.387E-02
DAV:  25    -0.262458687418E+03   -0.30039E-04   -0.54437E-05  3096   0.221E-02    0.188E-02
DAV:  26    -0.262458693841E+03   -0.64230E-05   -0.21894E-05  2320   0.150E-02    0.798E-03
DAV:  27    -0.262458699773E+03   -0.59323E-05   -0.28094E-06  1540   0.439E-03    0.442E-03
DAV:  28    -0.262458701426E+03   -0.16532E-05   -0.30661E-06  1540   0.535E-03
   1 F= -.26245870E+03 E0= -.26240625E+03  d E =-.104903E+00
 running on   16 total cores
 distrk:  each k-point on    8 cores,    2 groups
 distr:  one band on    4 cores,    2 groups
 using from now: INCAR     
 vasp.5.4.4.18Apr17-6-g9f103f2a35 (build Nov 27 2019 20:08:17) complex          
  
 POSCAR found type information on POSCAR  Ti
 POSCAR found :  1 types and      68 ions
 scaLAPACK will be used

 ----------------------------------------------------------------------------- 
|                                                                             |
|           W    W    AA    RRRRR   N    N  II  N    N   GGGG   !!!           |
|           W    W   A  A   R    R  NN   N  II  NN   N  G    G  !!!           |
|           W    W  A    A  R    R  N N  N  II  N N  N  G       !!!           |
|           W WW W  AAAAAA  RRRRR   N  N N  II  N  N N  G  GGG   !            |
|           WW  WW  A    A  R   R   N   NN  II  N   NN  G    G                |
|           W    W  A    A  R    R  N    N  II  N    N   GGGG   !!!           |
|                                                                             |
|      You have enabled k-point parallelism (KPAR>1).                         |
|      This developmental code was originally  written by Paul Kent at ORNL,  |
|      and carefully double checked in Vienna.                                |
|      GW as well as linear response parallelism added by Martijn Marsman     |
|      and Georg Kresse.                                                      |
|      Carefully verify results versus KPAR=1.                                |
|      Report problems to Paul Kent and Vienna.                               |
|                                                                             |
 ----------------------------------------------------------------------------- 

 LDA part: xc-table for Pade appr. of Perdew
 POSCAR found type information on POSCAR  Ti
 POSCAR found :  1 types and      68 ions
 POSCAR, INCAR and KPOINTS ok, starting setup
 FFT: planning ...
 WAVECAR not read
 WARNING: random wavefunctions but no delay for mixing, default for NELMDL
 entering main loop
       N       E                     dE             d eps       ncg     rms          rms(c)
DAV:   1     0.115274433021E+04    0.11527E+04   -0.78127E+04  4128   0.123E+03
DAV:   2    -0.364447268700E+03   -0.15172E+04   -0.14710E+04  4128   0.273E+02
DAV:   3    -0.595221660199E+03   -0.23077E+03   -0.21433E+03  6136   0.963E+01
DAV:   4    -0.613587054601E+03   -0.18365E+02   -0.17374E+02  6120   0.285E+01
DAV:   5    -0.614293216941E+03   -0.70616E+00   -0.68510E+00  5944   0.446E+00    0.107E+02
DAV:   6    -0.188808686558E+04   -0.12738E+04   -0.13684E+04  8092   0.193E+02    0.130E+02
DAV:   7    -0.682161526923E+03    0.12059E+04   -0.92426E+03  7672   0.143E+02    0.103E+02
DAV:   8    -0.523702801301E+03    0.15846E+03   -0.37756E+03  6616   0.176E+02    0.411E+01
DAV:   9    -0.577401740558E+03   -0.53699E+02   -0.10860E+03  7592   0.732E+01    0.514E+01
DAV:  10    -0.548764099035E+03    0.28638E+02   -0.34035E+02  7040   0.456E+01    0.421E+01
DAV:  11    -0.533166094496E+03    0.15598E+02   -0.62122E+01  6920   0.196E+01    0.352E+01
DAV:  12    -0.527147554405E+03    0.60185E+01   -0.14536E+01  6760   0.769E+00    0.307E+01
DAV:  13    -0.518185893240E+03    0.89617E+01   -0.36488E+01  6616   0.146E+01    0.206E+01
DAV:  14    -0.518323256967E+03   -0.13736E+00   -0.28772E+01  6968   0.140E+01    0.198E+01
DAV:  15    -0.516805085146E+03    0.15182E+01   -0.31215E+00  6168   0.454E+00    0.175E+01
DAV:  16    -0.515323018499E+03    0.14821E+01   -0.90042E-01  6408   0.228E+00    0.154E+01
DAV:  17    -0.513366536187E+03    0.19565E+01   -0.27002E+00  6344   0.369E+00    0.125E+01
DAV:  18    -0.512276637762E+03    0.10899E+01   -0.32568E+00  6368   0.409E+00    0.103E+01
DAV:  19    -0.511047164155E+03    0.12295E+01   -0.14610E+00  6656   0.271E+00    0.716E+00
DAV:  20    -0.510396894189E+03    0.65027E+00   -0.85144E-01  6488   0.220E+00    0.493E+00
DAV:  21    -0.510190763941E+03    0.20613E+00   -0.10250E+00  6488   0.252E+00    0.388E+00
DAV:  22    -0.510085943998E+03    0.10482E+00   -0.62145E-01  6440   0.200E+00    0.318E+00
DAV:  23    -0.509991778627E+03    0.94165E-01   -0.26919E-01  6392   0.124E+00    0.241E+00
DAV:  24    -0.509883427225E+03    0.10835E+00   -0.28928E-01  6736   0.112E+00    0.889E-01
DAV:  25    -0.509874879860E+03    0.85474E-02   -0.74971E-02  6496   0.625E-01    0.650E-01
DAV:  26    -0.509873208767E+03    0.16711E-02   -0.33337E-02  6384   0.463E-01    0.566E-01
DAV:  27    -0.509871810646E+03    0.13981E-02   -0.12293E-02  6400   0.270E-01    0.459E-01
DAV:  28    -0.509872558418E+03   -0.74777E-03   -0.17439E-02  6632   0.309E-01    0.386E-01
DAV:  29    -0.509870742695E+03    0.18157E-02   -0.12070E-02  6248   0.285E-01    0.238E-01
DAV:  30    -0.509870429637E+03    0.31306E-03   -0.39112E-03  6240   0.145E-01    0.176E-01
DAV:  31    -0.509870323207E+03    0.10643E-03   -0.65163E-04  6312   0.633E-02    0.144E-01
DAV:  32    -0.509870271971E+03    0.51236E-04   -0.25351E-04  6520   0.399E-02    0.114E-01
DAV:  33    -0.509870198237E+03    0.73734E-04   -0.44944E-04  6336   0.465E-02    0.776E-02
DAV:  34    -0.509870180794E+03    0.17442E-04   -0.18670E-04  6432   0.320E-02    0.497E-02
DAV:  35    -0.509870173934E+03    0.68606E-05   -0.49102E-05  5680   0.173E-02    0.340E-02
DAV:  36    -0.509870165450E+03    0.84836E-05   -0.41222E-05  5280   0.155E-02    0.135E-02
DAV:  37    -0.509870165176E+03    0.27398E-06   -0.16639E-05  3600   0.111E-02
   1 F= -.50987017E+03 E0= -.50979044E+03  d E =-.159458E+00

DISTANCE=0.500
E_alpha= -230.009636  E_beta= -262.459463  E_total= -509.004880 
W_seq=-16.535781

DISTANCE=1.000
E_alpha= -230.009100  E_beta= -262.458937  E_total= -510.086585 
W_seq=-17.618548

DISTANCE=1.500
E_alpha= -230.009012  E_beta= -262.458832  E_total= -510.886868 
W_seq=-18.419024

DISTANCE=2.000
E_alpha= -230.008951  E_beta= -262.458794  E_total= -511.453642 
W_seq=-18.985897

DISTANCE=2.500
E_alpha= -230.009113  E_beta= -262.458958  E_total= -511.830550 
W_seq=-19.362479

DISTANCE=3.000
E_alpha= -230.009001  E_beta= -262.458899  E_total= -512.056944 
W_seq=-19.589044

DISTANCE=3.500
E_alpha= -230.008940  E_beta= -262.458777  E_total= -512.166335 
W_seq=-19.698618

DISTANCE=4.000
E_alpha= -230.008941  E_beta= -262.458842  E_total= -512.186948 
W_seq=-19.719165

DISTANCE=4.500
E_alpha= -230.009076  E_beta= -262.458936  E_total= -512.139458 
W_seq=-19.671446

DISTANCE=5.000
E_alpha= -230.008957  E_beta= -262.458870  E_total= -512.040930 
W_seq=-19.573103

DISTANCE=5.500
E_alpha= -230.008891  E_beta= -262.458672  E_total= -511.902143 
W_seq=-19.434580

DISTANCE=6.000
E_alpha= -230.008947  E_beta= -262.458798  E_total= -511.730961 
W_seq=-19.263216

DISTANCE=6.500
E_alpha= -230.009107  E_beta= -262.458911  E_total= -511.531325 
W_seq=-19.063307

DISTANCE=7.000
E_alpha= -230.008936  E_beta= -262.458843  E_total= -511.305057 
W_seq=-18.837278

DISTANCE=7.500
E_alpha= -230.008784  E_beta= -262.458809  E_total= -511.054248 
W_seq=-18.586655

DISTANCE=8.000
E_alpha= -230.008956  E_beta= -262.458767  E_total= -510.782538 
W_seq=-18.314815

DISTANCE=8.500
E_alpha= -230.008912  E_beta= -262.458797  E_total= -510.493269 
W_seq=-18.025560

DISTANCE=9.000
E_alpha= -230.008918  E_beta= -262.458746  E_total= -510.189476 
W_seq=-17.721812

DISTANCE=9.500
E_alpha= -230.008928  E_beta= -262.458701  E_total= -509.870165 
W_seq=-17.402536

