  67  67   0   0
  0.1686261E+02  0.6309760E-09  0.9464640E-09  0.1891833E-08  0.5000000E-15
  1.000000000000000E-004
  CAR 
 unknown system                          
      4.25167603     -3.75753710  301      2.99060483      1.00000000
     -3.758  0.0000E+00  0.0000E+00
     -3.731  0.0000E+00  0.0000E+00
     -3.704  0.0000E+00  0.0000E+00
     -3.677 -0.3464E-32 -0.9248E-34
     -3.651 -0.1916E-28 -0.5116E-30
     -3.624 -0.5963E-25 -0.1592E-26
     -3.597 -0.1044E-21 -0.2789E-23
     -3.571 -0.1027E-18 -0.2745E-20
     -3.544 -0.5503E-16 -0.1472E-17
     -3.517 -0.1695E-13 -0.4540E-15
     -3.491 -0.2915E-11 -0.7829E-13
     -3.464 -0.2791E-09 -0.7530E-11
     -3.437 -0.1479E-07 -0.4024E-09
     -3.410 -0.4297E-06 -0.1187E-07
     -3.384 -0.6710E-05 -0.1910E-06
     -3.357 -0.5380E-04 -0.1627E-05
     -3.330 -0.1908E-03 -0.6722E-05
     -3.304 -0.4796E-04 -0.8002E-05
     -3.277  0.1538E-02  0.3306E-04
     -3.250  0.4245E-02  0.1464E-03
     -3.224  0.4723E-02  0.2725E-03
     -3.197  0.1974E-02  0.3252E-03
     -3.170 -0.7529E-03  0.3051E-03
     -3.143  0.5890E-03  0.3208E-03
     -3.117  0.9895E-02  0.5850E-03
     -3.090  0.2014E-01  0.1123E-02
     -3.063  0.1648E-01  0.1563E-02
     -3.037  0.4133E-02  0.1673E-02
     -3.010 -0.5117E-03  0.1659E-02
     -2.983  0.7774E-02  0.1867E-02
     -2.957  0.1976E-01  0.2394E-02
     -2.930  0.1866E-01  0.2893E-02
     -2.903  0.8027E-02  0.3107E-02
     -2.877  0.1989E-02  0.3160E-02
     -2.850  0.3145E-03  0.3169E-02
     -2.823 -0.4707E-04  0.3167E-02
     -2.796  0.8539E-03  0.3190E-02
     -2.770  0.2815E-02  0.3265E-02
     -2.743  0.7980E-02  0.3478E-02
     -2.716  0.1457E-01  0.3867E-02
     -2.690  0.1628E-01  0.4302E-02
     -2.663  0.2031E-01  0.4844E-02
     -2.636  0.2906E-01  0.5620E-02
     -2.610  0.2665E-01  0.6331E-02
     -2.583  0.1216E-01  0.6656E-02
     -2.556  0.9083E-03  0.6680E-02
     -2.529  0.5119E-03  0.6694E-02
     -2.503  0.8509E-02  0.6921E-02
     -2.476  0.1618E-01  0.7353E-02
     -2.449  0.1672E-01  0.7799E-02
     -2.423  0.1078E-01  0.8087E-02
     -2.396  0.2813E-02  0.8162E-02
     -2.369  0.7155E-03  0.8181E-02
     -2.343  0.8001E-02  0.8395E-02
     -2.316  0.1576E-01  0.8816E-02
     -2.289  0.1298E-01  0.9162E-02
     -2.262  0.4461E-02  0.9281E-02
     -2.236 -0.5427E-04  0.9280E-02
     -2.209  0.6182E-02  0.9445E-02
     -2.182  0.2464E-01  0.1010E-01
     -2.156  0.3728E-01  0.1110E-01
     -2.129  0.2728E-01  0.1183E-01
     -2.102  0.7957E-02  0.1204E-01
     -2.076 -0.1618E-02  0.1200E-01
     -2.049  0.8168E-03  0.1202E-01
     -2.022  0.1379E-01  0.1239E-01
     -1.996  0.3010E-01  0.1319E-01
     -1.969  0.2990E-01  0.1399E-01
     -1.942  0.1187E-01  0.1430E-01
     -1.915  0.3016E-02  0.1438E-01
     -1.889  0.1730E-01  0.1485E-01
     -1.862  0.3282E-01  0.1572E-01
     -1.835  0.2562E-01  0.1641E-01
     -1.809  0.1234E-01  0.1674E-01
     -1.782  0.9823E-02  0.1700E-01
     -1.755  0.1360E-01  0.1736E-01
     -1.729  0.2704E-01  0.1808E-01
     -1.702  0.3969E-01  0.1914E-01
     -1.675  0.3477E-01  0.2007E-01
     -1.648  0.2065E-01  0.2062E-01
     -1.622  0.9400E-02  0.2087E-01
     -1.595  0.2514E-02  0.2094E-01
     -1.568  0.2323E-02  0.2100E-01
     -1.542  0.1568E-01  0.2142E-01
     -1.515  0.3032E-01  0.2223E-01
     -1.488  0.2393E-01  0.2287E-01
     -1.462  0.1008E-01  0.2314E-01
     -1.435  0.1364E-01  0.2350E-01
     -1.408  0.2724E-01  0.2423E-01
     -1.381  0.3416E-01  0.2514E-01
     -1.355  0.3236E-01  0.2601E-01
     -1.328  0.2162E-01  0.2658E-01
     -1.301  0.8954E-02  0.2682E-01
     -1.275  0.9774E-02  0.2708E-01
     -1.248  0.2491E-01  0.2775E-01
     -1.221  0.3855E-01  0.2878E-01
     -1.195  0.3772E-01  0.2978E-01
     -1.168  0.2990E-01  0.3058E-01
     -1.141  0.3427E-01  0.3150E-01
     -1.114  0.4031E-01  0.3257E-01
     -1.088  0.3258E-01  0.3344E-01
     -1.061  0.2447E-01  0.3410E-01
     -1.034  0.2263E-01  0.3470E-01
     -1.008  0.2684E-01  0.3542E-01
     -0.981  0.3330E-01  0.3631E-01
     -0.954  0.3717E-01  0.3730E-01
     -0.928  0.4187E-01  0.3842E-01
     -0.901  0.3728E-01  0.3941E-01
     -0.874  0.2022E-01  0.3995E-01
     -0.848  0.1443E-01  0.4034E-01
     -0.821  0.2205E-01  0.4093E-01
     -0.794  0.2202E-01  0.4151E-01
     -0.767  0.1596E-01  0.4194E-01
     -0.741  0.2156E-01  0.4252E-01
     -0.714  0.3939E-01  0.4357E-01
     -0.687  0.5476E-01  0.4503E-01
     -0.661  0.5222E-01  0.4642E-01
     -0.634  0.3915E-01  0.4747E-01
     -0.607  0.3937E-01  0.4852E-01
     -0.581  0.5128E-01  0.4989E-01
     -0.554  0.5300E-01  0.5130E-01
     -0.527  0.3707E-01  0.5229E-01
     -0.500  0.1881E-01  0.5280E-01
     -0.474  0.1774E-01  0.5327E-01
     -0.447  0.3734E-01  0.5427E-01
     -0.420  0.5314E-01  0.5568E-01
     -0.394  0.5001E-01  0.5702E-01
     -0.367  0.4195E-01  0.5814E-01
     -0.340  0.3147E-01  0.5898E-01
     -0.314  0.2455E-01  0.5964E-01
     -0.287  0.3706E-01  0.6062E-01
     -0.260  0.5149E-01  0.6200E-01
     -0.233  0.4419E-01  0.6318E-01
     -0.207  0.3162E-01  0.6402E-01
     -0.180  0.3578E-01  0.6498E-01
     -0.153  0.4922E-01  0.6629E-01
     -0.127  0.5828E-01  0.6785E-01
     -0.100  0.6367E-01  0.6955E-01
     -0.073  0.6596E-01  0.7131E-01
     -0.047  0.6659E-01  0.7309E-01
     -0.020  0.6865E-01  0.7492E-01
      0.007  0.6623E-01  0.7669E-01
      0.033  0.7148E-01  0.7860E-01
      0.060  0.8429E-01  0.8085E-01
      0.087  0.7638E-01  0.8289E-01
      0.114  0.4987E-01  0.8422E-01
      0.140  0.3729E-01  0.8521E-01
      0.167  0.5397E-01  0.8665E-01
      0.194  0.8250E-01  0.8886E-01
      0.220  0.8529E-01  0.9113E-01
      0.247  0.6408E-01  0.9284E-01
      0.274  0.5784E-01  0.9439E-01
      0.300  0.6626E-01  0.9616E-01
      0.327  0.7596E-01  0.9818E-01
      0.354  0.9443E-01  0.1007E+00
      0.381  0.1240E+00  0.1040E+00
      0.407  0.1502E+00  0.1080E+00
      0.434  0.1571E+00  0.1122E+00
      0.461  0.1533E+00  0.1163E+00
      0.487  0.1527E+00  0.1204E+00
      0.514  0.1512E+00  0.1244E+00
      0.541  0.1459E+00  0.1283E+00
      0.567  0.1439E+00  0.1322E+00
      0.594  0.1390E+00  0.1359E+00
      0.621  0.1297E+00  0.1393E+00
      0.648  0.1389E+00  0.1430E+00
      0.674  0.1579E+00  0.1473E+00
      0.701  0.1592E+00  0.1515E+00
      0.728  0.1551E+00  0.1556E+00
      0.754  0.1602E+00  0.1599E+00
      0.781  0.1640E+00  0.1643E+00
      0.808  0.1618E+00  0.1686E+00
      0.834  0.1648E+00  0.1730E+00
      0.861  0.1800E+00  0.1778E+00
      0.888  0.1982E+00  0.1831E+00
      0.915  0.1996E+00  0.1885E+00
      0.941  0.1880E+00  0.1935E+00
      0.968  0.1888E+00  0.1985E+00
      0.995  0.2104E+00  0.2041E+00
      1.021  0.2402E+00  0.2105E+00
      1.048  0.2497E+00  0.2172E+00
      1.075  0.2369E+00  0.2235E+00
      1.101  0.2189E+00  0.2294E+00
      1.128  0.1996E+00  0.2347E+00
      1.155  0.1898E+00  0.2398E+00
      1.181  0.1923E+00  0.2449E+00
      1.208  0.1992E+00  0.2502E+00
      1.235  0.2139E+00  0.2559E+00
      1.262  0.2252E+00  0.2619E+00
      1.288  0.2249E+00  0.2679E+00
      1.315  0.2263E+00  0.2740E+00
      1.342  0.2182E+00  0.2798E+00
      1.368  0.1949E+00  0.2850E+00
      1.395  0.1922E+00  0.2902E+00
      1.422  0.2110E+00  0.2958E+00
      1.448  0.2082E+00  0.3013E+00
      1.475  0.1870E+00  0.3063E+00
      1.502  0.1775E+00  0.3111E+00
      1.529  0.1795E+00  0.3159E+00
      1.555  0.1819E+00  0.3207E+00
      1.582  0.1712E+00  0.3253E+00
      1.609  0.1604E+00  0.3296E+00
      1.635  0.1733E+00  0.3342E+00
      1.662  0.1822E+00  0.3391E+00
      1.689  0.1677E+00  0.3435E+00
      1.715  0.1492E+00  0.3475E+00
      1.742  0.1474E+00  0.3515E+00
      1.769  0.1733E+00  0.3561E+00
      1.796  0.1954E+00  0.3613E+00
      1.822  0.1915E+00  0.3664E+00
      1.849  0.1844E+00  0.3713E+00
      1.876  0.1778E+00  0.3761E+00
      1.902  0.1664E+00  0.3805E+00
      1.929  0.1593E+00  0.3848E+00
      1.956  0.1576E+00  0.3890E+00
      1.982  0.1675E+00  0.3935E+00
      2.009  0.1842E+00  0.3984E+00
      2.036  0.1922E+00  0.4035E+00
      2.062  0.2004E+00  0.4089E+00
      2.089  0.2094E+00  0.4144E+00
      2.116  0.2136E+00  0.4202E+00
      2.143  0.2214E+00  0.4261E+00
      2.169  0.2237E+00  0.4320E+00
      2.196  0.2151E+00  0.4378E+00
      2.223  0.2195E+00  0.4436E+00
      2.249  0.2360E+00  0.4499E+00
      2.276  0.2422E+00  0.4564E+00
      2.303  0.2475E+00  0.4630E+00
      2.329  0.2749E+00  0.4703E+00
      2.356  0.3094E+00  0.4786E+00
      2.383  0.3189E+00  0.4871E+00
      2.410  0.3153E+00  0.4955E+00
      2.436  0.3231E+00  0.5042E+00
      2.463  0.3269E+00  0.5129E+00
      2.490  0.3193E+00  0.5214E+00
      2.516  0.2975E+00  0.5294E+00
      2.543  0.2688E+00  0.5365E+00
      2.570  0.2622E+00  0.5435E+00
      2.596  0.2757E+00  0.5509E+00
      2.623  0.2792E+00  0.5584E+00
      2.650  0.2747E+00  0.5657E+00
      2.677  0.2757E+00  0.5730E+00
      2.703  0.2789E+00  0.5805E+00
      2.730  0.2916E+00  0.5883E+00
      2.757  0.3111E+00  0.5966E+00
      2.783  0.3139E+00  0.6050E+00
      2.810  0.3049E+00  0.6131E+00
      2.837  0.3037E+00  0.6212E+00
      2.863  0.3038E+00  0.6293E+00
      2.890  0.2909E+00  0.6371E+00
      2.917  0.2783E+00  0.6445E+00
      2.944  0.2930E+00  0.6523E+00
      2.970  0.3206E+00  0.6609E+00
      2.997  0.3213E+00  0.6695E+00
      3.024  0.3026E+00  0.6776E+00
      3.050  0.2911E+00  0.6853E+00
      3.077  0.2870E+00  0.6930E+00
      3.104  0.2842E+00  0.7006E+00
      3.130  0.2783E+00  0.7080E+00
      3.157  0.2677E+00  0.7152E+00
      3.184  0.2725E+00  0.7224E+00
      3.210  0.2998E+00  0.7304E+00
      3.237  0.3186E+00  0.7389E+00
      3.264  0.3143E+00  0.7473E+00
      3.291  0.3003E+00  0.7554E+00
      3.317  0.2905E+00  0.7631E+00
      3.344  0.2976E+00  0.7711E+00
      3.371  0.3031E+00  0.7791E+00
      3.397  0.2897E+00  0.7869E+00
      3.424  0.2687E+00  0.7941E+00
      3.451  0.2283E+00  0.8001E+00
      3.477  0.1786E+00  0.8049E+00
      3.504  0.1600E+00  0.8092E+00
      3.531  0.1637E+00  0.8136E+00
      3.558  0.1680E+00  0.8180E+00
      3.584  0.1710E+00  0.8226E+00
      3.611  0.1557E+00  0.8268E+00
      3.638  0.1167E+00  0.8299E+00
      3.664  0.7250E-01  0.8318E+00
      3.691  0.4546E-01  0.8330E+00
      3.718  0.3602E-01  0.8340E+00
      3.744  0.2576E-01  0.8347E+00
      3.771  0.1155E-01  0.8350E+00
      3.798  0.1982E-02  0.8350E+00
      3.825 -0.8440E-03  0.8350E+00
      3.851 -0.5675E-03  0.8350E+00
      3.878 -0.1314E-03  0.8350E+00
      3.905 -0.1495E-04  0.8350E+00
      3.931 -0.8994E-06  0.8350E+00
      3.958 -0.2943E-07  0.8350E+00
      3.985 -0.5316E-09  0.8350E+00
      4.011 -0.5343E-11  0.8350E+00
      4.038 -0.3002E-13  0.8350E+00
      4.065 -0.9565E-16  0.8350E+00
      4.091  0.0000E+00  0.8350E+00
      4.118  0.0000E+00  0.8350E+00
      4.145  0.0000E+00  0.8350E+00
      4.172  0.0000E+00  0.8350E+00
      4.198  0.0000E+00  0.8350E+00
      4.225  0.0000E+00  0.8350E+00
      4.252  0.0000E+00  0.8350E+00
