   67   67  400    1
  0.1686261E+02  0.6309760E-09  0.9464640E-09  0.1891833E-08  0.5000000E-15
  1.000000000000000E-004
  CAR 
 unknown system                          
    267     12    167
 
  0.0000000E+00  0.0000000E+00  0.0000000E+00  0.3333333E-01
    1       -3.257537   1.000000
    2       -2.784025   1.000000
    3       -2.484195   1.000000
    4       -1.774869   1.000000
    5       -1.261641   1.000000
    6       -1.162353   1.000000
    7       -1.123276   1.000000
    8       -0.986254   1.000000
    9       -0.931754   1.000000
   10       -0.764573   1.000000
   11       -0.725592   1.000000
   12       -0.282795   1.000000
   13       -0.094230   1.000000
   14        0.021552   1.000000
   15        0.075566   1.000000
   16        0.204693   1.000000
   17        0.273684   1.000000
   18        0.282521   1.000000
   19        0.291806   1.000000
   20        0.369821   1.000000
   21        0.376750   1.000000
   22        0.406879   1.000000
   23        0.474969   1.000000
   24        0.490253   1.000000
   25        0.504994   1.000000
   26        0.534284   1.000000
   27        0.535953   1.000000
   28        0.538412   1.000000
   29        0.560273   1.000000
   30        0.563306   1.000000
   31        0.587440   1.000000
   32        0.611903   1.000000
   33        0.646301   1.000000
   34        0.647195   1.000000
   35        0.666382   1.000000
   36        0.695603   1.000000
   37        0.707067   1.000000
   38        0.712080   1.000000
   39        0.739355   1.000000
   40        0.752393   1.000000
   41        0.794127   1.000000
   42        0.833546   1.000000
   43        0.864401   1.000000
   44        0.909308   1.000000
   45        0.920955   1.000000
   46        0.935836   1.000000
   47        0.980692   1.000000
   48        1.008280   1.000000
   49        1.012907   1.000000
   50        1.026721   1.000000
   51        1.063105   1.000000
   52        1.080597   1.000000
   53        1.143207   1.000000
   54        1.208091   1.000000
   55        1.224796   1.000000
   56        1.252862   1.000000
   57        1.255519   1.000000
   58        1.294655   1.000000
   59        1.303765   1.000000
   60        1.344920   1.000000
   61        1.401421   1.000000
   62        1.419806   1.000000
   63        1.461268   1.000000
   64        1.492554   1.000000
   65        1.507078   1.000000
   66        1.520949   1.000000
   67        1.549341   1.000000
   68        1.603879   1.000000
   69        1.628394   1.000000
   70        1.661238   1.000000
   71        1.705698   1.000000
   72        1.752368   1.000000
   73        1.789643   1.000000
   74        1.831769   1.000000
   75        1.837309   1.000000
   76        1.850451   1.000000
   77        1.876159   1.000000
   78        1.921785   1.000000
   79        1.950982   1.000000
   80        2.000838   1.000000
   81        2.027919   1.000000
   82        2.078099   1.000000
   83        2.097506   1.000000
   84        2.206445   1.000000
   85        2.216900   1.000000
   86        2.238821   1.000000
   87        2.261197   1.000000
   88        2.292041   1.000000
   89        2.304318   1.000000
   90        2.329399   1.000000
   91        2.352997   1.000000
   92        2.368286   1.000000
   93        2.381533   1.000000
   94        2.388421   1.000000
   95        2.421517   1.000000
   96        2.430266   1.000000
   97        2.451610   1.000000
   98        2.456196   1.000000
   99        2.460722   1.000000
  100        2.473525   1.000000
  101        2.487318   1.000000
  102        2.515450   1.000000
  103        2.560200   1.000000
  104        2.590153   1.000000
  105        2.617243   1.000000
  106        2.625852   1.000000
  107        2.630814   1.000000
  108        2.653245   1.000000
  109        2.672833   1.000000
  110        2.672904   1.000000
  111        2.692836   1.000000
  112        2.696777   1.000000
  113        2.725332   1.000000
  114        2.772857   1.000000
  115        2.774023   1.000000
  116        2.792441   1.000000
  117        2.806951   1.000001
  118        2.807410   1.000001
  119        2.817411   1.000006
  120        2.829834   1.000027
  121        2.891315   1.008368
  122        2.903201   1.016504
  123        2.904176   1.017320
  124        2.934314   1.033739
  125        2.940807   1.024703
  126        2.959246   0.931840
  127        2.968001   0.842656
  128        2.968312   0.838929
  129        3.003713   0.286372
  130        3.022244   0.065814
  131        3.034570  -0.007648
  132        3.054349  -0.035096
  133        3.079319  -0.015440
  134        3.079816  -0.015046
  135        3.086156  -0.010544
  136        3.126823  -0.000401
  137        3.147187  -0.000044
  138        3.148246  -0.000039
  139        3.165199  -0.000005
  140        3.169429  -0.000003
  141        3.206684  -0.000000
  142        3.224599  -0.000000
  143        3.242650  -0.000000
  144        3.252770  -0.000000
  145        3.275404  -0.000000
  146        3.298925  -0.000000
  147        3.305937  -0.000000
  148        3.329012  -0.000000
  149        3.329347  -0.000000
  150        3.357813  -0.000000
  151        3.378484  -0.000000
  152        3.393624  -0.000000
  153        3.397308  -0.000000
  154        3.409506  -0.000000
  155        3.416964  -0.000000
  156        3.478534  -0.000000
  157        3.483927  -0.000000
  158        3.516248  -0.000000
  159        3.520446  -0.000000
  160        3.537310  -0.000000
  161        3.539436  -0.000000
  162        3.574872  -0.000000
  163        3.618147  -0.000000
  164        3.688913  -0.000000
  165        3.705257  -0.000000
  166        3.738421  -0.000000
  167        3.749672  -0.000000
 
  0.2000000E+00  0.0000000E+00  0.0000000E+00  0.6666667E-01
    1       -3.102789   1.000000
    2       -2.614900   1.000000
    3       -2.318398   1.000000
    4       -1.673315   1.000000
    5       -1.115438   1.000000
    6       -1.018842   1.000000
    7       -0.983494   1.000000
    8       -0.864644   1.000000
    9       -0.792130   1.000000
   10       -0.663920   1.000000
   11       -0.588082   1.000000
   12       -0.534544   1.000000
   13       -0.362102   1.000000
   14       -0.215214   1.000000
   15       -0.031539   1.000000
   16        0.045703   1.000000
   17        0.151704   1.000000
   18        0.176208   1.000000
   19        0.210521   1.000000
   20        0.257684   1.000000
   21        0.280289   1.000000
   22        0.309478   1.000000
   23        0.382373   1.000000
   24        0.405334   1.000000
   25        0.440964   1.000000
   26        0.461957   1.000000
   27        0.504103   1.000000
   28        0.565895   1.000000
   29        0.606821   1.000000
   30        0.634614   1.000000
   31        0.656386   1.000000
   32        0.680729   1.000000
   33        0.689767   1.000000
   34        0.728497   1.000000
   35        0.773594   1.000000
   36        0.779497   1.000000
   37        0.812375   1.000000
   38        0.878030   1.000000
   39        0.896469   1.000000
   40        0.924296   1.000000
   41        0.940785   1.000000
   42        0.958061   1.000000
   43        0.964894   1.000000
   44        0.994430   1.000000
   45        1.016518   1.000000
   46        1.031327   1.000000
   47        1.071691   1.000000
   48        1.075773   1.000000
   49        1.137153   1.000000
   50        1.170287   1.000000
   51        1.211741   1.000000
   52        1.230942   1.000000
   53        1.268157   1.000000
   54        1.285451   1.000000
   55        1.300626   1.000000
   56        1.326182   1.000000
   57        1.337116   1.000000
   58        1.347996   1.000000
   59        1.416983   1.000000
   60        1.442897   1.000000
   61        1.450736   1.000000
   62        1.510481   1.000000
   63        1.537942   1.000000
   64        1.557006   1.000000
   65        1.570478   1.000000
   66        1.587393   1.000000
   67        1.630672   1.000000
   68        1.640572   1.000000
   69        1.657179   1.000000
   70        1.676481   1.000000
   71        1.716018   1.000000
   72        1.794897   1.000000
   73        1.820278   1.000000
   74        1.850078   1.000000
   75        1.870817   1.000000
   76        1.888028   1.000000
   77        1.921654   1.000000
   78        1.949534   1.000000
   79        1.987438   1.000000
   80        1.999019   1.000000
   81        2.047700   1.000000
   82        2.090025   1.000000
   83        2.113649   1.000000
   84        2.149578   1.000000
   85        2.190320   1.000000
   86        2.206672   1.000000
   87        2.226995   1.000000
   88        2.260342   1.000000
   89        2.269395   1.000000
   90        2.315249   1.000000
   91        2.343659   1.000000
   92        2.346401   1.000000
   93        2.357312   1.000000
   94        2.379388   1.000000
   95        2.386516   1.000000
   96        2.407790   1.000000
   97        2.416040   1.000000
   98        2.424119   1.000000
   99        2.437576   1.000000
  100        2.469886   1.000000
  101        2.489041   1.000000
  102        2.495309   1.000000
  103        2.499336   1.000000
  104        2.517837   1.000000
  105        2.535094   1.000000
  106        2.549960   1.000000
  107        2.569061   1.000000
  108        2.584338   1.000000
  109        2.603002   1.000000
  110        2.626210   1.000000
  111        2.632915   1.000000
  112        2.654904   1.000000
  113        2.666927   1.000000
  114        2.695902   1.000000
  115        2.713452   1.000000
  116        2.740407   1.000000
  117        2.749234   1.000000
  118        2.752844   1.000000
  119        2.786207   1.000000
  120        2.797090   1.000000
  121        2.807716   1.000001
  122        2.826545   1.000018
  123        2.839925   1.000087
  124        2.849836   1.000253
  125        2.860188   1.000704
  126        2.862496   1.000873
  127        2.885213   1.005556
  128        2.908260   1.020914
  129        2.922974   1.033353
  130        2.946838   1.006891
  131        2.956650   0.952363
  132        2.966431   0.860889
  133        2.989510   0.518519
  134        3.005809   0.255384
  135        3.022563   0.063182
  136        3.050112  -0.035264
  137        3.052947  -0.035385
  138        3.078552  -0.016059
  139        3.097746  -0.004906
  140        3.106052  -0.002605
  141        3.128911  -0.000325
  142        3.135125  -0.000170
  143        3.156902  -0.000013
  144        3.168278  -0.000003
  145        3.187261  -0.000000
  146        3.210792  -0.000000
  147        3.219777  -0.000000
  148        3.230870  -0.000000
  149        3.253273  -0.000000
  150        3.262105  -0.000000
  151        3.273096  -0.000000
  152        3.299799  -0.000000
  153        3.316484  -0.000000
  154        3.336899  -0.000000
  155        3.357384  -0.000000
  156        3.363155  -0.000000
  157        3.395238  -0.000000
  158        3.397476  -0.000000
  159        3.438038  -0.000000
  160        3.500024  -0.000000
  161        3.511202  -0.000000
  162        3.532039  -0.000000
  163        3.545392  -0.000000
  164        3.585701  -0.000000
  165        3.605474  -0.000000
  166        3.623403  -0.000000
  167        3.644572  -0.000000
 
  0.4000000E+00  0.0000000E+00  0.0000000E+00  0.6666667E-01
    1       -2.727031   1.000000
    2       -2.151977   1.000000
    3       -1.863377   1.000000
    4       -1.623476   1.000000
    5       -1.331352   1.000000
    6       -1.132493   1.000000
    7       -0.909670   1.000000
    8       -0.716943   1.000000
    9       -0.629878   1.000000
   10       -0.607176   1.000000
   11       -0.489890   1.000000
   12       -0.424274   1.000000
   13       -0.345964   1.000000
   14       -0.243147   1.000000
   15       -0.187994   1.000000
   16       -0.159611   1.000000
   17       -0.121831   1.000000
   18       -0.099933   1.000000
   19        0.030599   1.000000
   20        0.052378   1.000000
   21        0.191366   1.000000
   22        0.249892   1.000000
   23        0.399375   1.000000
   24        0.433018   1.000000
   25        0.508438   1.000000
   26        0.554624   1.000000
   27        0.635872   1.000000
   28        0.671632   1.000000
   29        0.707214   1.000000
   30        0.734833   1.000000
   31        0.766782   1.000000
   32        0.847137   1.000000
   33        0.855130   1.000000
   34        0.863342   1.000000
   35        0.870647   1.000000
   36        0.964283   1.000000
   37        0.984339   1.000000
   38        1.014344   1.000000
   39        1.039316   1.000000
   40        1.072313   1.000000
   41        1.091393   1.000000
   42        1.130048   1.000000
   43        1.165688   1.000000
   44        1.171420   1.000000
   45        1.231377   1.000000
   46        1.244393   1.000000
   47        1.265397   1.000000
   48        1.289571   1.000000
   49        1.305107   1.000000
   50        1.337333   1.000000
   51        1.348151   1.000000
   52        1.373955   1.000000
   53        1.384341   1.000000
   54        1.414450   1.000000
   55        1.423769   1.000000
   56        1.436491   1.000000
   57        1.453132   1.000000
   58        1.463455   1.000000
   59        1.484948   1.000000
   60        1.520212   1.000000
   61        1.541910   1.000000
   62        1.560822   1.000000
   63        1.586668   1.000000
   64        1.600158   1.000000
   65        1.618682   1.000000
   66        1.640006   1.000000
   67        1.677764   1.000000
   68        1.697254   1.000000
   69        1.703884   1.000000
   70        1.720054   1.000000
   71        1.755198   1.000000
   72        1.770808   1.000000
   73        1.839768   1.000000
   74        1.865943   1.000000
   75        1.921115   1.000000
   76        1.960564   1.000000
   77        2.005861   1.000000
   78        2.011209   1.000000
   79        2.040722   1.000000
   80        2.067712   1.000000
   81        2.096896   1.000000
   82        2.110420   1.000000
   83        2.146150   1.000000
   84        2.159237   1.000000
   85        2.177527   1.000000
   86        2.186704   1.000000
   87        2.197848   1.000000
   88        2.212344   1.000000
   89        2.231270   1.000000
   90        2.247842   1.000000
   91        2.255541   1.000000
   92        2.269282   1.000000
   93        2.286150   1.000000
   94        2.303736   1.000000
   95        2.320577   1.000000
   96        2.326052   1.000000
   97        2.337556   1.000000
   98        2.349996   1.000000
   99        2.360499   1.000000
  100        2.374055   1.000000
  101        2.402622   1.000000
  102        2.425001   1.000000
  103        2.434218   1.000000
  104        2.442494   1.000000
  105        2.460676   1.000000
  106        2.478323   1.000000
  107        2.487927   1.000000
  108        2.508934   1.000000
  109        2.520006   1.000000
  110        2.535690   1.000000
  111        2.542556   1.000000
  112        2.556553   1.000000
  113        2.569851   1.000000
  114        2.575798   1.000000
  115        2.590247   1.000000
  116        2.605313   1.000000
  117        2.625086   1.000000
  118        2.657356   1.000000
  119        2.663004   1.000000
  120        2.678133   1.000000
  121        2.695782   1.000000
  122        2.709936   1.000000
  123        2.727151   1.000000
  124        2.735221   1.000000
  125        2.750564   1.000000
  126        2.758844   1.000000
  127        2.776504   1.000000
  128        2.801806   1.000001
  129        2.817704   1.000006
  130        2.826918   1.000019
  131        2.846704   1.000182
  132        2.869179   1.001584
  133        2.875167   1.002607
  134        2.895425   1.010779
  135        2.903130   1.016445
  136        2.921764   1.032585
  137        2.946805   1.007019
  138        2.954062   0.970183
  139        2.962006   0.907039
  140        2.981244   0.655404
  141        2.990136   0.507942
  142        2.994438   0.435340
  143        3.000278   0.339626
  144        3.023826   0.053163
  145        3.038419  -0.019975
  146        3.053279  -0.035335
  147        3.077633  -0.016816
  148        3.119884  -0.000783
  149        3.133604  -0.000200
  150        3.142887  -0.000072
  151        3.165257  -0.000005
  152        3.182361  -0.000000
  153        3.200342  -0.000000
  154        3.209570  -0.000000
  155        3.220099  -0.000000
  156        3.237505  -0.000000
  157        3.261203  -0.000000
  158        3.280671  -0.000000
  159        3.291793  -0.000000
  160        3.300209  -0.000000
  161        3.314391  -0.000000
  162        3.333723  -0.000000
  163        3.361413  -0.000000
  164        3.381422  -0.000000
  165        3.385886  -0.000000
  166        3.423402  -0.000000
  167        3.441784  -0.000000
 
  0.0000000E+00  0.3333333E+00  0.0000000E+00  0.6666667E-01
    1       -3.103836   1.000000
    2       -2.611706   1.000000
    3       -2.323065   1.000000
    4       -2.170240   1.000000
    5       -1.877800   1.000000
    6       -1.664573   1.000000
    7       -1.245665   1.000000
    8       -0.960180   1.000000
    9       -0.751540   1.000000
   10       -0.519981   1.000000
   11       -0.357432   1.000000
   12       -0.038774   1.000000
   13        0.041381   1.000000
   14        0.181118   1.000000
   15        0.273910   1.000000
   16        0.324349   1.000000
   17        0.353432   1.000000
   18        0.392090   1.000000
   19        0.395251   1.000000
   20        0.418049   1.000000
   21        0.433659   1.000000
   22        0.459693   1.000000
   23        0.467815   1.000000
   24        0.484651   1.000000
   25        0.510334   1.000000
   26        0.526060   1.000000
   27        0.532540   1.000000
   28        0.555570   1.000000
   29        0.583028   1.000000
   30        0.594434   1.000000
   31        0.605897   1.000000
   32        0.635694   1.000000
   33        0.641861   1.000000
   34        0.655449   1.000000
   35        0.686562   1.000000
   36        0.704185   1.000000
   37        0.727473   1.000000
   38        0.742234   1.000000
   39        0.775725   1.000000
   40        0.776287   1.000000
   41        0.833365   1.000000
   42        0.876204   1.000000
   43        0.909558   1.000000
   44        0.933325   1.000000
   45        0.940355   1.000000
   46        0.953492   1.000000
   47        0.963925   1.000000
   48        1.009598   1.000000
   49        1.028271   1.000000
   50        1.030118   1.000000
   51        1.040706   1.000000
   52        1.065764   1.000000
   53        1.071230   1.000000
   54        1.099647   1.000000
   55        1.106734   1.000000
   56        1.118040   1.000000
   57        1.153601   1.000000
   58        1.205797   1.000000
   59        1.234741   1.000000
   60        1.257856   1.000000
   61        1.298383   1.000000
   62        1.332972   1.000000
   63        1.347828   1.000000
   64        1.436469   1.000000
   65        1.471140   1.000000
   66        1.509080   1.000000
   67        1.571956   1.000000
   68        1.634494   1.000000
   69        1.645625   1.000000
   70        1.680348   1.000000
   71        1.723365   1.000000
   72        1.759696   1.000000
   73        1.816610   1.000000
   74        1.832864   1.000000
   75        1.838773   1.000000
   76        1.877338   1.000000
   77        1.931471   1.000000
   78        1.959434   1.000000
   79        1.999979   1.000000
   80        2.054736   1.000000
   81        2.054775   1.000000
   82        2.085364   1.000000
   83        2.105971   1.000000
   84        2.140641   1.000000
   85        2.144094   1.000000
   86        2.162694   1.000000
   87        2.189409   1.000000
   88        2.229325   1.000000
   89        2.236783   1.000000
   90        2.276285   1.000000
   91        2.291420   1.000000
   92        2.308189   1.000000
   93        2.315760   1.000000
   94        2.328711   1.000000
   95        2.334639   1.000000
   96        2.348013   1.000000
   97        2.374608   1.000000
   98        2.416932   1.000000
   99        2.429965   1.000000
  100        2.443978   1.000000
  101        2.459015   1.000000
  102        2.479282   1.000000
  103        2.489892   1.000000
  104        2.510844   1.000000
  105        2.523246   1.000000
  106        2.554637   1.000000
  107        2.557056   1.000000
  108        2.585608   1.000000
  109        2.587767   1.000000
  110        2.626662   1.000000
  111        2.641072   1.000000
  112        2.656718   1.000000
  113        2.674028   1.000000
  114        2.687225   1.000000
  115        2.730040   1.000000
  116        2.731214   1.000000
  117        2.737538   1.000000
  118        2.789562   1.000000
  119        2.822199   1.000010
  120        2.834491   1.000046
  121        2.848172   1.000212
  122        2.861025   1.000762
  123        2.897720   1.012314
  124        2.907412   1.020148
  125        2.937132   1.030915
  126        2.938122   1.029542
  127        2.958960   0.934230
  128        2.965550   0.870694
  129        2.988057   0.543059
  130        3.018050   0.104237
  131        3.056905  -0.034086
  132        3.082107  -0.013303
  133        3.092676  -0.006977
  134        3.109758  -0.001921
  135        3.164567  -0.000005
  136        3.165143  -0.000005
  137        3.197963  -0.000000
  138        3.205907  -0.000000
  139        3.246727  -0.000000
  140        3.250434  -0.000000
  141        3.267206  -0.000000
  142        3.298764  -0.000000
  143        3.314405  -0.000000
  144        3.323539  -0.000000
  145        3.343847  -0.000000
  146        3.357464  -0.000000
  147        3.369716  -0.000000
  148        3.401866  -0.000000
  149        3.411305  -0.000000
  150        3.420693  -0.000000
  151        3.453811  -0.000000
  152        3.460538  -0.000000
  153        3.475180  -0.000000
  154        3.496749  -0.000000
  155        3.516742  -0.000000
  156        3.545618  -0.000000
  157        3.557685  -0.000000
  158        3.560370  -0.000000
  159        3.572279  -0.000000
  160        3.580339  -0.000000
  161        3.594326  -0.000000
  162        3.626051  -0.000000
  163        3.635728  -0.000000
  164        3.656679  -0.000000
  165        3.656768  -0.000000
  166        3.699468  -0.000000
  167        3.706262  -0.000000
 
  0.2000000E+00  0.3333333E+00  0.0000000E+00  0.1333333E+00
    1       -2.964186   1.000000
    2       -2.446425   1.000000
    3       -2.159653   1.000000
    4       -2.003664   1.000000
    5       -1.722377   1.000000
    6       -1.515974   1.000000
    7       -1.131728   1.000000
    8       -0.821430   1.000000
    9       -0.681119   1.000000
   10       -0.438424   1.000000
   11       -0.374504   1.000000
   12       -0.273972   1.000000
   13       -0.156370   1.000000
   14       -0.085125   1.000000
   15       -0.022100   1.000000
   16        0.085456   1.000000
   17        0.120510   1.000000
   18        0.181522   1.000000
   19        0.293422   1.000000
   20        0.347564   1.000000
   21        0.368240   1.000000
   22        0.411774   1.000000
   23        0.431327   1.000000
   24        0.476640   1.000000
   25        0.496239   1.000000
   26        0.514314   1.000000
   27        0.542945   1.000000
   28        0.567855   1.000000
   29        0.646227   1.000000
   30        0.671190   1.000000
   31        0.700407   1.000000
   32        0.722267   1.000000
   33        0.734639   1.000000
   34        0.762774   1.000000
   35        0.805651   1.000000
   36        0.819170   1.000000
   37        0.850248   1.000000
   38        0.873281   1.000000
   39        0.885342   1.000000
   40        0.906850   1.000000
   41        0.941423   1.000000
   42        0.973923   1.000000
   43        0.999236   1.000000
   44        1.030922   1.000000
   45        1.043776   1.000000
   46        1.063587   1.000000
   47        1.075469   1.000000
   48        1.096948   1.000000
   49        1.107660   1.000000
   50        1.131839   1.000000
   51        1.139700   1.000000
   52        1.175178   1.000000
   53        1.188788   1.000000
   54        1.204306   1.000000
   55        1.234759   1.000000
   56        1.244437   1.000000
   57        1.263177   1.000000
   58        1.314061   1.000000
   59        1.332871   1.000000
   60        1.359066   1.000000
   61        1.408751   1.000000
   62        1.430926   1.000000
   63        1.486760   1.000000
   64        1.510748   1.000000
   65        1.535008   1.000000
   66        1.566946   1.000000
   67        1.619321   1.000000
   68        1.652314   1.000000
   69        1.694203   1.000000
   70        1.745517   1.000000
   71        1.770143   1.000000
   72        1.788444   1.000000
   73        1.830922   1.000000
   74        1.852092   1.000000
   75        1.873244   1.000000
   76        1.915595   1.000000
   77        1.929852   1.000000
   78        1.947664   1.000000
   79        1.979843   1.000000
   80        1.989946   1.000000
   81        2.017258   1.000000
   82        2.046108   1.000000
   83        2.080962   1.000000
   84        2.105822   1.000000
   85        2.124584   1.000000
   86        2.133150   1.000000
   87        2.163553   1.000000
   88        2.170140   1.000000
   89        2.218453   1.000000
   90        2.237791   1.000000
   91        2.255103   1.000000
   92        2.263904   1.000000
   93        2.289280   1.000000
   94        2.317314   1.000000
   95        2.339536   1.000000
   96        2.355614   1.000000
   97        2.369560   1.000000
   98        2.379298   1.000000
   99        2.400144   1.000000
  100        2.419627   1.000000
  101        2.438819   1.000000
  102        2.450815   1.000000
  103        2.460479   1.000000
  104        2.471272   1.000000
  105        2.483935   1.000000
  106        2.506916   1.000000
  107        2.517774   1.000000
  108        2.548471   1.000000
  109        2.565839   1.000000
  110        2.586278   1.000000
  111        2.595230   1.000000
  112        2.614766   1.000000
  113        2.643129   1.000000
  114        2.667492   1.000000
  115        2.691380   1.000000
  116        2.710413   1.000000
  117        2.736123   1.000000
  118        2.748817   1.000000
  119        2.764763   1.000000
  120        2.784804   1.000000
  121        2.797045   1.000000
  122        2.809422   1.000002
  123        2.830365   1.000028
  124        2.844954   1.000151
  125        2.873482   1.002274
  126        2.886609   1.006123
  127        2.909796   1.022320
  128        2.936210   1.032009
  129        2.958929   0.934486
  130        2.966688   0.857971
  131        2.993949   0.443535
  132        3.021249   0.074288
  133        3.024734   0.046354
  134        3.043490  -0.030126
  135        3.063060  -0.029849
  136        3.073272  -0.020622
  137        3.088840  -0.008946
  138        3.108061  -0.002212
  139        3.128842  -0.000327
  140        3.143028  -0.000071
  141        3.177996  -0.000001
  142        3.188079  -0.000000
  143        3.211455  -0.000000
  144        3.238608  -0.000000
  145        3.247422  -0.000000
  146        3.275660  -0.000000
  147        3.286936  -0.000000
  148        3.295346  -0.000000
  149        3.325089  -0.000000
  150        3.343035  -0.000000
  151        3.357991  -0.000000
  152        3.365680  -0.000000
  153        3.386805  -0.000000
  154        3.410185  -0.000000
  155        3.423135  -0.000000
  156        3.436977  -0.000000
  157        3.459034  -0.000000
  158        3.476829  -0.000000
  159        3.491003  -0.000000
  160        3.507857  -0.000000
  161        3.516548  -0.000000
  162        3.522476  -0.000000
  163        3.545024  -0.000000
  164        3.567657  -0.000000
  165        3.581128  -0.000000
  166        3.593080  -0.000000
  167        3.614029  -0.000000
 
  0.4000000E+00  0.3333333E+00  0.0000000E+00  0.1333333E+00
    1       -2.645236   1.000000
    2       -1.988477   1.000000
    3       -1.702969   1.000000
    4       -1.531642   1.000000
    5       -1.424364   1.000000
    6       -1.245846   1.000000
    7       -1.135785   1.000000
    8       -1.021410   1.000000
    9       -0.915543   1.000000
   10       -0.826832   1.000000
   11       -0.609070   1.000000
   12       -0.576380   1.000000
   13       -0.449394   1.000000
   14       -0.402235   1.000000
   15       -0.143828   1.000000
   16       -0.078543   1.000000
   17       -0.017166   1.000000
   18        0.049051   1.000000
   19        0.194696   1.000000
   20        0.331176   1.000000
   21        0.373040   1.000000
   22        0.415234   1.000000
   23        0.452636   1.000000
   24        0.581644   1.000000
   25        0.671128   1.000000
   26        0.724219   1.000000
   27        0.755293   1.000000
   28        0.810773   1.000000
   29        0.825240   1.000000
   30        0.848240   1.000000
   31        0.864045   1.000000
   32        0.884342   1.000000
   33        0.903627   1.000000
   34        0.916365   1.000000
   35        0.960656   1.000000
   36        0.997497   1.000000
   37        1.013520   1.000000
   38        1.026529   1.000000
   39        1.049018   1.000000
   40        1.085638   1.000000
   41        1.111816   1.000000
   42        1.143272   1.000000
   43        1.157054   1.000000
   44        1.172411   1.000000
   45        1.186990   1.000000
   46        1.202668   1.000000
   47        1.240443   1.000000
   48        1.251593   1.000000
   49        1.273530   1.000000
   50        1.288052   1.000000
   51        1.303053   1.000000
   52        1.321552   1.000000
   53        1.343625   1.000000
   54        1.380494   1.000000
   55        1.395799   1.000000
   56        1.403380   1.000000