       N       E                     dE             d eps       ncg     rms          rms(c)
DAV:   1     0.102818001318E+04    0.10282E+04   -0.68703E+04  4008   0.108E+03
DAV:   2    -0.359263929795E+03   -0.13874E+04   -0.13473E+04  4008   0.262E+02
DAV:   3    -0.567709111679E+03   -0.20845E+03   -0.19419E+03  5976   0.911E+01
DAV:   4    -0.584476553764E+03   -0.16767E+02   -0.15816E+02  6000   0.268E+01
DAV:   5    -0.585194086347E+03   -0.71753E+00   -0.69020E+00  5920   0.435E+00    0.104E+02
DAV:   6    -0.137633523889E+04   -0.79114E+03   -0.83801E+03  7942   0.171E+02    0.121E+02
DAV:   7    -0.625643801548E+03    0.75069E+03   -0.85985E+03  7288   0.158E+02    0.731E+01
DAV:   8    -0.519113416528E+03    0.10653E+03   -0.25477E+03  7113   0.138E+02    0.463E+01
DAV:   9    -0.526271736185E+03   -0.71583E+01   -0.80306E+02  6720   0.669E+01    0.392E+01
DAV:  10    -0.517507842170E+03    0.87639E+01   -0.12508E+02  6456   0.265E+01    0.352E+01
DAV:  11    -0.515183044310E+03    0.23248E+01   -0.11782E+01  6400   0.797E+00    0.330E+01
DAV:  12    -0.513924200440E+03    0.12588E+01   -0.22194E+00  6632   0.436E+00    0.318E+01
DAV:  13    -0.511695539224E+03    0.22287E+01   -0.12624E+00  5992   0.323E+00    0.291E+01
DAV:  14    -0.503183098743E+03    0.85124E+01   -0.23042E+01  5976   0.126E+01    0.140E+01
DAV:  15    -0.501377702789E+03    0.18054E+01   -0.58008E+00  5944   0.632E+00    0.998E+00
DAV:  16    -0.501029428339E+03    0.34827E+00   -0.12095E+00  6064   0.287E+00    0.904E+00
DAV:  17    -0.500550277463E+03    0.47915E+00   -0.11117E+00  6248   0.275E+00    0.760E+00
DAV:  18    -0.499827326910E+03    0.72295E+00   -0.26649E+00  6184   0.422E+00    0.455E+00
DAV:  19    -0.499695862065E+03    0.13146E+00   -0.13987E+00  6120   0.307E+00    0.350E+00
DAV:  20    -0.499609725044E+03    0.86137E-01   -0.57968E-01  6096   0.197E+00    0.266E+00
DAV:  21    -0.499564119267E+03    0.45606E-01   -0.23204E-01  6232   0.124E+00    0.218E+00
DAV:  22    -0.499530993757E+03    0.33126E-01   -0.26777E-01  6192   0.127E+00    0.160E+00
DAV:  23    -0.499512911839E+03    0.18082E-01   -0.16143E-01  6088   0.104E+00    0.111E+00
DAV:  24    -0.499501169701E+03    0.11742E-01   -0.83491E-02  6088   0.795E-01    0.612E-01
DAV:  25    -0.499496686109E+03    0.44836E-02   -0.33122E-02  6104   0.470E-01    0.247E-01
DAV:  26    -0.499496306912E+03    0.37920E-03   -0.80892E-03  6288   0.216E-01    0.163E-01
DAV:  27    -0.499496470296E+03   -0.16338E-03   -0.43563E-03  6160   0.169E-01    0.198E-01
DAV:  28    -0.499496376792E+03    0.93504E-04   -0.19178E-03  6088   0.112E-01    0.170E-01
DAV:  29    -0.499496200104E+03    0.17669E-03   -0.11943E-03  6072   0.940E-02    0.989E-02
DAV:  30    -0.499496111083E+03    0.89021E-04   -0.52328E-04  5800   0.621E-02    0.392E-02
DAV:  31    -0.499496101406E+03    0.96770E-05   -0.18032E-04  6136   0.338E-02    0.272E-02
DAV:  32    -0.499496090700E+03    0.10706E-04   -0.84150E-05  6088   0.221E-02    0.139E-02
DAV:  33    -0.499496087546E+03    0.31535E-05   -0.27443E-05  6112   0.143E-02    0.104E-02
DAV:  34    -0.499496085999E+03    0.15477E-05   -0.89827E-06  6160   0.768E-03    0.844E-03
DAV:  35    -0.499496084027E+03    0.19721E-05   -0.32493E-06  6080   0.474E-03    0.732E-03
DAV:  36    -0.499496082536E+03    0.14906E-05   -0.17457E-06  6080   0.338E-03    0.417E-03
DAV:  37    -0.499496082028E+03    0.50836E-06   -0.13995E-06  5576   0.323E-03    0.170E-03
DAV:  38    -0.499496081760E+03    0.26774E-06   -0.42079E-07  5048   0.179E-03    0.122E-03
DAV:  39    -0.499496081680E+03    0.79674E-07   -0.77947E-08  2616   0.898E-04    0.822E-04
DAV:  40    -0.499496081668E+03    0.12758E-07   -0.31774E-08  2520   0.670E-04
   1 F= -.49949608E+03 E0= -.49949489E+03  d E =-.499496E+03
       N       E                     dE             d eps       ncg     rms          rms(c)
DAV:   1    -0.499540408724E+03   -0.44327E-01   -0.28380E-01  4188   0.883E-01    0.267E-01
DAV:   2    -0.499583108912E+03   -0.42700E-01   -0.22195E-01  6424   0.117E+00    0.149E+00
DAV:   3    -0.499548086211E+03    0.35023E-01   -0.17820E-01  7400   0.114E+00    0.666E-01
DAV:   4    -0.499540112818E+03    0.79734E-02   -0.40092E-02  6360   0.473E-01    0.193E-01
DAV:   5    -0.499540305014E+03   -0.19220E-03   -0.58872E-03  6240   0.208E-01    0.186E-01
DAV:   6    -0.499540530103E+03   -0.22509E-03   -0.38048E-03  7352   0.199E-01    0.210E-01
DAV:   7    -0.499539960613E+03    0.56949E-03   -0.35559E-03  6736   0.159E-01    0.118E-01
DAV:   8    -0.499540171978E+03   -0.21136E-03   -0.37249E-03  6232   0.139E-01    0.154E-01
DAV:   9    -0.499539882746E+03    0.28923E-03   -0.27244E-03  6064   0.126E-01    0.792E-02
DAV:  10    -0.499539791902E+03    0.90844E-04   -0.86986E-04  5992   0.711E-02    0.314E-02
DAV:  11    -0.499539790713E+03    0.11892E-05   -0.16202E-04  5968   0.343E-02    0.261E-02
DAV:  12    -0.499539781641E+03    0.90719E-05   -0.63510E-05  5992   0.206E-02    0.119E-02
DAV:  13    -0.499539782352E+03   -0.71090E-06   -0.23519E-05  6144   0.123E-02    0.121E-02
DAV:  14    -0.499539781443E+03    0.90920E-06   -0.17638E-05  6136   0.110E-02    0.824E-03
DAV:  15    -0.499539780605E+03    0.83807E-06   -0.11044E-05  5976   0.796E-03    0.450E-03
DAV:  16    -0.499539780440E+03    0.16485E-06   -0.30819E-06  5992   0.447E-03    0.320E-03
DAV:  17    -0.499539780268E+03    0.17241E-06   -0.10355E-06  5904   0.243E-03    0.127E-03
DAV:  18    -0.499539780260E+03    0.81236E-08   -0.99320E-08  2952   0.110E-03
   2 F= -.49953978E+03 E0= -.49953860E+03  d E =-.436986E-01
       N       E                     dE             d eps       ncg     rms          rms(c)
DAV:   1    -0.499614773311E+03   -0.74993E-01   -0.24499E+00  4059   0.259E+00    0.746E-01
DAV:   2    -0.499977369418E+03   -0.36260E+00   -0.17924E+00  6424   0.334E+00    0.437E+00
DAV:   3    -0.499672062533E+03    0.30531E+00   -0.13202E+00  7440   0.329E+00    0.183E+00
DAV:   4    -0.499613392792E+03    0.58670E-01   -0.32155E-01  6400   0.132E+00    0.523E-01
DAV:   5    -0.499617824879E+03   -0.44321E-02   -0.53509E-02  6312   0.649E-01    0.636E-01
DAV:   6    -0.499615725419E+03    0.20995E-02   -0.36323E-02  7328   0.625E-01    0.535E-01
DAV:   7    -0.499612262953E+03    0.34625E-02   -0.30597E-02  6456   0.433E-01    0.322E-01
DAV:   8    -0.499613679877E+03   -0.14169E-02   -0.28580E-02  6208   0.391E-01    0.409E-01
DAV:   9    -0.499611497059E+03    0.21828E-02   -0.19228E-02  6056   0.336E-01    0.196E-01
DAV:  10    -0.499610944774E+03    0.55229E-03   -0.56321E-03  6000   0.181E-01    0.814E-02
DAV:  11    -0.499610956303E+03   -0.11530E-04   -0.13104E-03  5984   0.972E-02    0.759E-02
DAV:  12    -0.499610874286E+03    0.82017E-04   -0.59655E-04  5984   0.624E-02    0.314E-02
DAV:  13    -0.499610876054E+03   -0.17677E-05   -0.19985E-04  6080   0.363E-02    0.294E-02
DAV:  14    -0.499610871009E+03    0.50443E-05   -0.12329E-04  6096   0.292E-02    0.211E-02
DAV:  15    -0.499610864568E+03    0.64410E-05   -0.71428E-05  5968   0.202E-02    0.980E-03
DAV:  16    -0.499610864213E+03    0.35546E-06   -0.19295E-05  5992   0.111E-02    0.805E-03
DAV:  17    -0.499610863115E+03    0.10979E-05   -0.74204E-06  6016   0.649E-03    0.295E-03
DAV:  18    -0.499610863117E+03   -0.24102E-08   -0.13065E-06  6120   0.290E-03    0.255E-03
DAV:  19    -0.499610863120E+03   -0.21791E-08   -0.85799E-07  5968   0.251E-03    0.206E-03
DAV:  20    -0.499610863094E+03    0.26010E-07   -0.64953E-07  5504   0.196E-03    0.112E-03
DAV:  21    -0.499610863097E+03   -0.31941E-08   -0.22978E-07  3992   0.128E-03
   3 F= -.49961086E+03 E0= -.49960970E+03  d E =-.114781E+00
       N       E                     dE             d eps       ncg     rms          rms(c)
DAV:   1    -0.499619617857E+03   -0.87548E-02   -0.40311E-01  4058   0.105E+00    0.287E-01
DAV:   2    -0.499673647147E+03   -0.54029E-01   -0.26702E-01  6456   0.128E+00    0.168E+00
DAV:   3    -0.499628302774E+03    0.45344E-01   -0.22610E-01  7400   0.125E+00    0.693E-01
DAV:   4    -0.499619721089E+03    0.85817E-02   -0.45187E-02  6352   0.500E-01    0.204E-01
DAV:   5    -0.499620086310E+03   -0.36522E-03   -0.81071E-03  6256   0.242E-01    0.217E-01
DAV:   6    -0.499620377413E+03   -0.29110E-03   -0.54717E-03  7360   0.240E-01    0.248E-01
DAV:   7    -0.499619477413E+03    0.90000E-03   -0.48157E-03  6792   0.187E-01    0.120E-01
DAV:   8    -0.499619721137E+03   -0.24372E-03   -0.41974E-03  6240   0.147E-01    0.161E-01
DAV:   9    -0.499619382379E+03    0.33876E-03   -0.29194E-03  6032   0.131E-01    0.759E-02
DAV:  10    -0.499619303671E+03    0.78707E-04   -0.87445E-04  6032   0.711E-02    0.335E-02
DAV:  11    -0.499619303018E+03    0.65378E-06   -0.18465E-04  6008   0.369E-02    0.286E-02
DAV:  12    -0.499619292124E+03    0.10894E-04   -0.80812E-05  5992   0.231E-02    0.130E-02
DAV:  13    -0.499619293451E+03   -0.13268E-05   -0.33882E-05  6120   0.148E-02    0.139E-02
DAV:  14    -0.499619291752E+03    0.16988E-05   -0.23183E-05  6064   0.126E-02    0.833E-03
DAV:  15    -0.499619290868E+03    0.88394E-06   -0.11718E-05  5960   0.823E-03    0.447E-03
DAV:  16    -0.499619290718E+03    0.15064E-06   -0.31565E-06  5984   0.452E-03    0.319E-03
DAV:  17    -0.499619290544E+03    0.17364E-06   -0.10712E-06  5912   0.247E-03    0.118E-03
DAV:  18    -0.499619290538E+03    0.54406E-08   -0.99747E-08  2992   0.110E-03
   4 F= -.49961929E+03 E0= -.49961812E+03  d E =-.123209E+00
       N       E                     dE             d eps       ncg     rms          rms(c)
DAV:   1    -0.499620008459E+03   -0.71791E-03   -0.58011E-02  4093   0.398E-01    0.107E-01
DAV:   2    -0.499627494062E+03   -0.74856E-02   -0.36414E-02  6520   0.476E-01    0.623E-01
DAV:   3    -0.499621208515E+03    0.62855E-02   -0.30643E-02  7384   0.461E-01    0.256E-01
DAV:   4    -0.499620039391E+03    0.11691E-02   -0.61157E-03  6368   0.184E-01    0.757E-02
DAV:   5    -0.499620073821E+03   -0.34430E-04   -0.11325E-03  6304   0.884E-02    0.762E-02
DAV:   6    -0.499620157702E+03   -0.83881E-04   -0.79689E-04  7400   0.896E-02    0.100E-01
DAV:   7    -0.499620002373E+03    0.15533E-03   -0.69671E-04  7104   0.743E-02    0.444E-02
DAV:   8    -0.499620035968E+03   -0.33595E-04   -0.57826E-04  6280   0.544E-02    0.600E-02
DAV:   9    -0.499619988207E+03    0.47760E-04   -0.40119E-04  6016   0.483E-02    0.278E-02
DAV:  10    -0.499619977844E+03    0.10364E-04   -0.11965E-04  6024   0.263E-02    0.127E-02
DAV:  11    -0.499619977659E+03    0.18462E-06   -0.25187E-05  6016   0.137E-02    0.107E-02
DAV:  12    -0.499619976148E+03    0.15113E-05   -0.11180E-05  6000   0.858E-03    0.495E-03
DAV:  13    -0.499619976386E+03   -0.23848E-06   -0.51265E-06  6128   0.575E-03    0.550E-03
DAV:  14    -0.499619976056E+03    0.33011E-06   -0.34777E-06  6080   0.484E-03    0.302E-03
DAV:  15    -0.499619975940E+03    0.11624E-06   -0.15716E-06  5976   0.302E-03    0.170E-03
DAV:  16    -0.499619975909E+03    0.30519E-07   -0.40515E-07  4768   0.166E-03
   5 F= -.49961998E+03 E0= -.49961880E+03  d E =-.123894E+00
       N       E                     dE             d eps       ncg     rms          rms(c)
DAV:   1    -0.499619976643E+03   -0.70317E-06   -0.27238E-05  4200   0.868E-03    0.238E-03
DAV:   2    -0.499619980551E+03   -0.39082E-05   -0.18235E-05  6560   0.107E-02    0.141E-02
DAV:   3    -0.499619977166E+03    0.33854E-05   -0.15319E-05  7384   0.104E-02    0.543E-03
DAV:   4    -0.499619976640E+03    0.52594E-06   -0.27999E-06  6376   0.395E-03    0.158E-03
DAV:   5    -0.499619976659E+03   -0.19074E-07   -0.56245E-07  5728   0.197E-03    0.172E-03
DAV:   6    -0.499619976692E+03   -0.33318E-07   -0.31886E-07  3792   0.206E-03
   6 F= -.49961998E+03 E0= -.49961880E+03  d E =-.123895E+00
       N       E                     dE             d eps       ncg     rms          rms(c)
DAV:   1    -0.499620306767E+03   -0.33011E-03   -0.53610E-03  4094   0.122E-01    0.426E-02
DAV:   2    -0.499620855642E+03   -0.54888E-03   -0.38470E-03  6208   0.155E-01    0.186E-01
DAV:   3    -0.499620343073E+03    0.51257E-03   -0.26356E-03  6130   0.127E-01    0.561E-02
DAV:   4    -0.499620302279E+03    0.40794E-04   -0.31287E-04  6544   0.489E-02    0.296E-02
DAV:   5    -0.499620295487E+03    0.67912E-05   -0.10120E-04  6272   0.264E-02    0.205E-02
DAV:   6    -0.499620294593E+03    0.89424E-06   -0.50773E-05  6136   0.179E-02    0.183E-02
DAV:   7    -0.499620307879E+03   -0.13285E-04   -0.70648E-05  7496   0.251E-02    0.320E-02
DAV:   8    -0.499620297682E+03    0.10197E-04   -0.87675E-05  7088   0.264E-02    0.210E-02
DAV:   9    -0.499620291447E+03    0.62351E-05   -0.47881E-05  6160   0.164E-02    0.105E-02
DAV:  10    -0.499620289815E+03    0.16313E-05   -0.13992E-05  6072   0.923E-03    0.366E-03
DAV:  11    -0.499620289852E+03   -0.36742E-07   -0.24848E-06  6136   0.420E-03    0.311E-03
DAV:  12    -0.499620289719E+03    0.13344E-06   -0.92034E-07  5848   0.259E-03    0.140E-03
DAV:  13    -0.499620289711E+03    0.82746E-08   -0.32561E-07  4608   0.145E-03
   7 F= -.49962029E+03 E0= -.49961911E+03  d E =-.313018E-03
       N       E                     dE             d eps       ncg     rms          rms(c)
DAV:   1    -0.499620354747E+03   -0.65028E-04   -0.27812E-03  4102   0.878E-02    0.309E-02
DAV:   2    -0.499620645676E+03   -0.29093E-03   -0.20340E-03  6208   0.112E-01    0.135E-01
DAV:   3    -0.499620367612E+03    0.27806E-03   -0.13855E-03  6050   0.912E-02    0.369E-02
DAV:   4    -0.499620352721E+03    0.14891E-04   -0.15043E-04  6496   0.333E-02    0.219E-02
DAV:   5    -0.499620348677E+03    0.40440E-05   -0.53691E-05  6336   0.194E-02    0.149E-02
DAV:   6    -0.499620347591E+03    0.10859E-05   -0.25356E-05  6048   0.123E-02    0.121E-02
DAV:   7    -0.499620354413E+03   -0.68213E-05   -0.40558E-05  6632   0.173E-02    0.219E-02
DAV:   8    -0.499620351303E+03    0.31096E-05   -0.41012E-05  7440   0.201E-02    0.175E-02
DAV:   9    -0.499620346590E+03    0.47130E-05   -0.26627E-05  6392   0.128E-02    0.771E-03
DAV:  10    -0.499620345686E+03    0.90355E-06   -0.74012E-06  6088   0.659E-03    0.259E-03
DAV:  11    -0.499620345706E+03   -0.19596E-07   -0.13225E-06  6008   0.309E-03    0.220E-03
DAV:  12    -0.499620345632E+03    0.73645E-07   -0.45800E-07  4808   0.188E-03    0.941E-04
DAV:  13    -0.499620345623E+03    0.95351E-08   -0.13300E-07  3192   0.113E-03
   8 F= -.49962035E+03 E0= -.49961917E+03  d E =-.368931E-03
       N       E                     dE             d eps       ncg     rms          rms(c)
DAV:   1    -0.499620346194E+03   -0.56167E-06   -0.19642E-05  4150   0.746E-03    0.260E-03
DAV:   2    -0.499620348200E+03   -0.20060E-05   -0.14395E-05  6160   0.940E-03    0.112E-02
DAV:   3    -0.499620346211E+03    0.19894E-05   -0.94036E-06  5970   0.753E-03    0.227E-03
DAV:   4    -0.499620346218E+03   -0.76780E-08   -0.80548E-07  5728   0.253E-03    0.216E-03
DAV:   5    -0.499620346159E+03    0.59614E-07   -0.30909E-07  3824   0.187E-03    0.114E-03
DAV:   6    -0.499620346156E+03    0.31050E-08   -0.13303E-07  3072   0.126E-03
   9 F= -.49962035E+03 E0= -.49961917E+03  d E =-.369463E-03
