 vasp.5.4.4.18Apr17-6-g9f103f2a35 (build Nov 27 2019 20:08:17) complex          
  
 executed on             LinuxIFC date 2020.04.19  09:27:25
 running on   16 total cores
 distrk:  each k-point on    8 cores,    2 groups
 distr:  one band on NCORES_PER_BAND=   8 cores,    1 groups


--------------------------------------------------------------------------------------------------------


 INCAR:
 POTCAR:    PAW_PBE Ti 08Apr2002                  
 POTCAR:    PAW_PBE Al 04Jan2001                  

 ----------------------------------------------------------------------------- 
|                                                                             |
|           W    W    AA    RRRRR   N    N  II  N    N   GGGG   !!!           |
|           W    W   A  A   R    R  NN   N  II  NN   N  G    G  !!!           |
|           W    W  A    A  R    R  N N  N  II  N N  N  G       !!!           |
|           W WW W  AAAAAA  RRRRR   N  N N  II  N  N N  G  GGG   !            |
|           WW  WW  A    A  R   R   N   NN  II  N   NN  G    G                |
|           W    W  A    A  R    R  N    N  II  N    N   GGGG   !!!           |
|                                                                             |
|      You have enabled k-point parallelism (KPAR>1).                         |
|      This developmental code was originally  written by Paul Kent at ORNL,  |
|      and carefully double checked in Vienna.                                |
|      GW as well as linear response parallelism added by Martijn Marsman     |
|      and Georg Kresse.                                                      |
|      Carefully verify results versus KPAR=1.                                |
|      Report problems to Paul Kent and Vienna.                               |
|                                                                             |
 ----------------------------------------------------------------------------- 

 POTCAR:    PAW_PBE Ti 08Apr2002                  
   VRHFIN =Ti: d3 s1                                                            
   LEXCH  = PS                                                                  
   EATOM  =    94.7928 eV,    6.9671 Ry                                         
                                                                                
   TITEL  = PAW_PBE Ti 08Apr2002                                                
   LULTRA =        F    use ultrasoft PP ?                                      
   IUNSCR =        1    unscreen: 0-lin 1-nonlin 2-no                           
   RPACOR =    2.200    partial core radius                                     
   POMASS =   47.880; ZVAL   =    4.000    mass and valenz                      
   RCORE  =    2.800    outmost cutoff radius                                   
   RWIGS  =    2.500; RWIGS  =    1.323    wigner-seitz radius (au A)           
   ENMAX  =  178.330; ENMIN  =  133.747 eV                                      
   RCLOC  =    2.215    cutoff for local pot                                    
   LCOR   =        T    correct aug charges                                     
   LPAW   =        T    paw PP                                                  
   EAUG   =  328.883                                                            
   DEXC   =    0.000                                                            
   RMAX   =    2.868    core radius for proj-oper                               
   RAUG   =    1.300    factor for augmentation sphere                          
   RDEP   =    2.885    radius for radial grids                                 
   RDEPT  =    2.320    core radius for aug-charge                              
                                                                                
   Atomic configuration                                                         
    9 entries                                                                   
     n  l   j            E        occ.                                          
     1  0  0.50     -4865.3608   2.0000                                         
     2  0  0.50      -533.1367   2.0000                                         
     2  1  1.50      -440.5031   6.0000                                         
     3  0  0.50       -59.3186   2.0000                                         
     3  1  1.50       -35.7012   6.0000                                         
     3  2  2.50        -1.9157   3.0000                                         
     4  0  0.50        -3.7291   1.0000                                         
     4  1  1.50        -4.0817   0.0000                                         
     4  3  2.50        -1.3606   0.0000                                         
   Description                                                                  
     l       E           TYP  RCUT    TYP  RCUT                                 
     2     -1.9156924     23  2.800                                             
     2     -0.4062961     23  2.800                                             
     0     -3.7290832     23  2.800                                             
     0     20.4087390     23  2.800                                             
     1     -5.4423304     23  2.800                                             
  local pseudopotential read in
  partial core-charges read in
  partial kinetic energy density read in
  atomic valenz-charges read in
  non local Contribution for L=           2  read in
    real space projection operators read in
  non local Contribution for L=           2  read in
    real space projection operators read in
  non local Contribution for L=           0  read in
    real space projection operators read in
  non local Contribution for L=           0  read in
    real space projection operators read in
  non local Contribution for L=           1  read in
    real space projection operators read in
    PAW grid and wavefunctions read in
 
   number of l-projection  operators is LMAX  =           5
   number of lm-projection operators is LMMAX =          15
 
 POTCAR:    PAW_PBE Al 04Jan2001                  
   VRHFIN =Al: s2p1                                                             
   LEXCH  = PS                                                                  
   EATOM  =    53.5387 eV,    3.9350 Ry                                         
                                                                                
   TITEL  = PAW_PBE Al 04Jan2001                                                
   LULTRA =        F    use ultrasoft PP ?                                      
   IUNSCR =        1    unscreen: 0-lin 1-nonlin 2-no                           
   RPACOR =    1.500    partial core radius                                     
   POMASS =   26.981; ZVAL   =    3.000    mass and valenz                      
   RCORE  =    1.900    outmost cutoff radius                                   
   RWIGS  =    2.650; RWIGS  =    1.402    wigner-seitz radius (au A)           
   ENMAX  =  240.300; ENMIN  =  180.225 eV                                      
   ICORE  =        2    local potential                                         
   LCOR   =        T    correct aug charges                                     
   LPAW   =        T    paw PP                                                  
   EAUG   =  291.052                                                            
   DEXC   =    0.000                                                            
   RMAX   =    1.939    core radius for proj-oper                               
   RAUG   =    1.300    factor for augmentation sphere                          
   RDEP   =    1.966    radius for radial grids                                 
   RDEPT  =    1.856    core radius for aug-charge                              
                                                                                
   Atomic configuration                                                         
    6 entries                                                                   
     n  l   j            E        occ.                                          
     1  0  0.50     -1511.1048   2.0000                                         
     2  0  0.50      -108.1629   2.0000                                         
     2  1  1.50       -69.6402   6.0000                                         
     3  0  0.50        -7.7528   2.0000                                         
     3  1  1.50        -2.7121   1.0000                                         
     3  2  2.50        -2.7212   0.0000                                         
   Description                                                                  
     l       E           TYP  RCUT    TYP  RCUT                                 
     0     -7.7528455     23  1.900                                             
     0     -3.3096929     23  1.900                                             
     1     -2.7120682     23  1.900                                             
     1     13.6058260     23  1.900                                             
     2     -2.7211652      7  1.900                                             
  local pseudopotential read in
  partial core-charges read in
  partial kinetic energy density read in
  atomic valenz-charges read in
  non local Contribution for L=           0  read in
    real space projection operators read in
  non local Contribution for L=           0  read in
    real space projection operators read in
  non local Contribution for L=           1  read in
    real space projection operators read in
  non local Contribution for L=           1  read in
    real space projection operators read in
    PAW grid and wavefunctions read in
 
   number of l-projection  operators is LMAX  =           4
   number of lm-projection operators is LMMAX =           8
 
 Optimization of the real space projectors (new method)

 maximal supplied QI-value         = 13.42
 optimisation between [QCUT,QGAM] = [  9.93, 19.86] = [ 27.60,110.42] Ry 
 Optimized for a Real-space Cutoff    1.59 Angstroem

   l    n(q)    QCUT    max X(q) W(low)/X(q) W(high)/X(q)  e(spline) 
   2      9     9.929    49.363    0.27E-03    0.79E-03    0.35E-06
   2      9     9.929    47.669    0.26E-03    0.77E-03    0.34E-06
   0      9     9.929    26.374    0.19E-03    0.47E-04    0.12E-06
   0      9     9.929    11.549    0.15E-03    0.39E-04    0.96E-07
   1      9     9.929     9.492    0.16E-04    0.78E-04    0.41E-07
 Optimization of the real space projectors (new method)

 maximal supplied QI-value         = 19.84
 optimisation between [QCUT,QGAM] = [  9.92, 19.84] = [ 27.56,110.25] Ry 
 Optimized for a Real-space Cutoff    1.26 Angstroem

   l    n(q)    QCUT    max X(q) W(low)/X(q) W(high)/X(q)  e(spline) 
   0      7     9.921   176.870    0.16E-03    0.24E-03    0.48E-07
   0      7     9.921   105.762    0.16E-03    0.23E-03    0.47E-07
   1      7     9.921    55.370    0.28E-03    0.18E-03    0.14E-06
   1      7     9.921    20.208    0.26E-03    0.17E-03    0.13E-06
  PAW_PBE Ti 08Apr2002                  :
 energy of atom  1       EATOM=  -94.7928
 kinetic energy error for atom=    0.0007 (will be added to EATOM!!)
  PAW_PBE Al 04Jan2001                  :
 energy of atom  2       EATOM=  -53.5387
 kinetic energy error for atom=    0.0006 (will be added to EATOM!!)
 
 
 POSCAR: Optimistic_Structure                    
  positions in direct lattice
  No initial velocities read in
 exchange correlation table for  LEXCH =       14
   RHO(1)=    0.500       N(1)  =     2000
   RHO(2)=  100.500       N(2)  =     4000

 VTST: version 3.2, (02/03/18)

 CHAIN: initializing optimizer
 
 OPT: Using VASP Conjugate-Gradient optimizer
 CHAIN: Read ICHAIN            0
 
 POSCAR: Optimistic_Structure                    
  positions in direct lattice
  No initial velocities read in
 


--------------------------------------------------------------------------------------------------------


 ion  position               nearest neighbor table
   1  0.625  0.042  0.500-  18 2.69  19 2.69  30 2.69  31 2.69  40 2.82  57 2.97  58 2.97   3 3.00
                             7 3.15  13 3.15
   2  0.125  0.042  0.659-  18 2.69  19 2.69  30 2.69  31 2.69  20 2.69  21 2.69  32 2.69  33 2.69
                             4 3.00   8 3.15   3 3.15   3 3.15  14 3.15
   3  0.625  0.042  0.659-  18 2.69  19 2.69  30 2.69  31 2.69  20 2.69  21 2.69  32 2.69  33 2.69
                             1 3.00   5 3.00   9 3.15   2 3.15   2 3.15  15 3.15
   4  0.125  0.042  0.817-  20 2.69  21 2.69  22 2.69  23 2.69  32 2.69  33 2.69  34 2.69  35 2.69
                             2 3.00  10 3.15   5 3.15   5 3.15  16 3.15
   5  0.625  0.042  0.817-  20 2.69  21 2.69  22 2.69  23 2.69  32 2.69  33 2.69  34 2.69  35 2.69
                             3 3.00  11 3.15   4 3.15   4 3.15  17 3.15
   6  0.125  0.375  0.500-  55 2.52  56 2.52  24 2.69  25 2.69  18 2.69  19 2.69   8 3.00  12 3.15
                             7 3.15   7 3.15
   7  0.625  0.375  0.500-  55 2.52  56 2.52  24 2.69  25 2.69  18 2.69  19 2.69   9 3.00   1 3.15
                            13 3.15   6 3.15   6 3.15
   8  0.125  0.375  0.659-  18 2.69  19 2.69  24 2.69  25 2.69  20 2.69  21 2.69  26 2.69  27 2.69
                             6 3.00  10 3.00   2 3.15  14 3.15   9 3.15   9 3.15
   9  0.625  0.375  0.659-  18 2.69  19 2.69  24 2.69  25 2.69  20 2.69  21 2.69  26 2.69  27 2.69
                             7 3.00  11 3.00   3 3.15  15 3.15   8 3.15   8 3.15
  10  0.125  0.375  0.817-  20 2.69  21 2.69  26 2.69  27 2.69  22 2.69  23 2.69  28 2.69  29 2.69
                             8 3.00   4 3.15  16 3.15  11 3.15  11 3.15
  11  0.625  0.375  0.817-  20 2.69  21 2.69  26 2.69  27 2.69  22 2.69  23 2.69  28 2.69  29 2.69
                             9 3.00   5 3.15  17 3.15  10 3.15  10 3.15
  12  0.125  0.708  0.500-  24 2.69  25 2.69  30 2.69  31 2.69  36 2.82  57 2.97  58 2.97  14 3.00
                             6 3.15  13 3.15  13 3.15
  13  0.625  0.708  0.500-  24 2.69  25 2.69  30 2.69  31 2.69  37 2.82  57 2.97  58 2.97  15 3.00
                             7 3.15  12 3.15  12 3.15   1 3.15
  14  0.125  0.708  0.659-  24 2.69  25 2.69  30 2.69  31 2.69  26 2.69  27 2.69  32 2.69  33 2.69
                            12 3.00  16 3.00   8 3.15  15 3.15  15 3.15   2 3.15
  15  0.625  0.708  0.659-  24 2.69  25 2.69  30 2.69  31 2.69  26 2.69  27 2.69  32 2.69  33 2.69
                            13 3.00  17 3.00   9 3.15  14 3.15  14 3.15   3 3.15
  16  0.125  0.708  0.817-  26 2.69  27 2.69  28 2.69  29 2.69  32 2.69  33 2.69  34 2.69  35 2.69
                            14 3.00  10 3.15  17 3.15  17 3.15   4 3.15
  17  0.625  0.708  0.817-  26 2.69  27 2.69  28 2.69  29 2.69  32 2.69  33 2.69  34 2.69  35 2.69
                            15 3.00  11 3.15  16 3.15  16 3.15   5 3.15
  18  0.375  0.208  0.579-   1 2.69   2 2.69   3 2.69   6 2.69   7 2.69   8 2.69   9 2.69  20 3.00
                            30 3.15  19 3.15  19 3.15  24 3.15
  19  0.875  0.208  0.579-   1 2.69   2 2.69   3 2.69   6 2.69   7 2.69   8 2.69   9 2.69  21 3.00
                            31 3.15  18 3.15  18 3.15  25 3.15
  20  0.375  0.208  0.738-   4 2.69   5 2.69  10 2.69  11 2.69   2 2.69   3 2.69   8 2.69   9 2.69
                            22 3.00  18 3.00  32 3.15  21 3.15  21 3.15  26 3.15
  21  0.875  0.208  0.738-   4 2.69   5 2.69  10 2.69  11 2.69   2 2.69   3 2.69   8 2.69   9 2.69
                            23 3.00  19 3.00  33 3.15  20 3.15  20 3.15  27 3.15
  22  0.375  0.208  0.896-  65 2.11   5 2.69   4 2.69  11 2.69  10 2.69  20 3.00  34 3.15  23 3.15
                            23 3.15  28 3.15
  23  0.875  0.208  0.896-  66 2.11   5 2.69   4 2.69  11 2.69  10 2.69  21 3.00  35 3.15  22 3.15
                            22 3.15  29 3.15
  24  0.375  0.542  0.579-  12 2.69  13 2.69  14 2.69  15 2.69   6 2.69   7 2.69   8 2.69   9 2.69
                            26 3.00  30 3.15  25 3.15  25 3.15  18 3.15
  25  0.875  0.542  0.579-  12 2.69  13 2.69  14 2.69  15 2.69   6 2.69   7 2.69   8 2.69   9 2.69
                            27 3.00  31 3.15  24 3.15  24 3.15  19 3.15
  26  0.375  0.542  0.738-  16 2.69  17 2.69  10 2.69  11 2.69  14 2.69  15 2.69   8 2.69   9 2.69
                            28 3.00  24 3.00  32 3.15  27 3.15  27 3.15  20 3.15
  27  0.875  0.542  0.738-  16 2.69  17 2.69  10 2.69  11 2.69  14 2.69  15 2.69   8 2.69   9 2.69
                            29 3.00  25 3.00  33 3.15  26 3.15  26 3.15  21 3.15
  28  0.375  0.542  0.896-  61 2.11  17 2.69  16 2.69  11 2.69  10 2.69  26 3.00  34 3.15  29 3.15
                            29 3.15  22 3.15
  29  0.875  0.542  0.896-  62 2.11  17 2.69  16 2.69  11 2.69  10 2.69  27 3.00  35 3.15  28 3.15
                            28 3.15  23 3.15
  30  0.375  0.875  0.579-   1 2.69   2 2.69   3 2.69  12 2.69  13 2.69  14 2.69  15 2.69  32 3.00
                            24 3.15  18 3.15  31 3.15  31 3.15
  31  0.875  0.875  0.579-   1 2.69   2 2.69   3 2.69  12 2.69  13 2.69  14 2.69  15 2.69  33 3.00
                            25 3.15  19 3.15  30 3.15  30 3.15
  32  0.375  0.875  0.738-   4 2.69   5 2.69  16 2.69  17 2.69  14 2.69  15 2.69   2 2.69   3 2.69
                            34 3.00  30 3.00  20 3.15  26 3.15  33 3.15  33 3.15
  33  0.875  0.875  0.738-   4 2.69   5 2.69  16 2.69  17 2.69  14 2.69  15 2.69   2 2.69   3 2.69
                            35 3.00  31 3.00  21 3.15  27 3.15  32 3.15  32 3.15
  34  0.375  0.875  0.896-   4 2.69   5 2.69  16 2.69  17 2.69  32 3.00  61 3.07  65 3.07  45 3.13
                            46 3.13  28 3.15  22 3.15  35 3.15  35 3.15
  35  0.875  0.875  0.896-   4 2.69   5 2.69  16 2.69  17 2.69  33 3.00  62 3.07  66 3.07  45 3.13
                            46 3.13  29 3.15  23 3.15  34 3.15  34 3.15
  36  0.125  0.625  0.357-  59 2.75  60 2.75  47 2.80  49 2.80  12 2.82  57 2.94  58 2.94  55 2.94
                            56 2.94  37 3.15  37 3.15
  37  0.625  0.625  0.357-  59 2.75  60 2.75  48 2.80  50 2.80  13 2.82  57 2.94  58 2.94  55 2.94
                            56 2.94  36 3.15  36 3.15
  38  0.125  0.625  0.119-  59 2.75  60 2.75  61 2.75  62 2.75  43 2.80  45 2.80  53 2.94  52 2.94
                            51 2.94  54 2.94  39 3.15  39 3.15
  39  0.625  0.625  0.119-  59 2.75  60 2.75  61 2.75  62 2.75  44 2.80  46 2.80  54 2.94  52 2.94
                            51 2.94  53 2.94  38 3.15  38 3.15
  40  0.625  0.125  0.357-  63 2.75  64 2.75  48 2.80  50 2.80   1 2.82  57 2.94  58 2.94  55 2.94
                            56 2.94  67 3.15  67 3.15
  41  0.125  0.125  0.119-  65 2.75  66 2.75  63 2.75  64 2.75  43 2.80  45 2.80  53 2.94  52 2.94
                            51 2.94  54 2.94  42 3.15  42 3.15
  42  0.625  0.125  0.119-  65 2.75  66 2.75  63 2.75  64 2.75  44 2.80  46 2.80  54 2.94  52 2.94
                            51 2.94  53 2.94  41 3.15  41 3.15
  43  0.125  0.375  0.040-  53 2.75  54 2.75  38 2.80  41 2.80  61 2.94  62 2.94  65 2.94  66 2.94
                            44 3.15  44 3.15
  44  0.625  0.375  0.040-  54 2.75  53 2.75  39 2.80  42 2.80  61 2.94  62 2.94  65 2.94  66 2.94
                            43 3.15  43 3.15
  45  0.125  0.875  0.040-  51 2.75  52 2.75  38 2.80  41 2.80  61 2.94  62 2.94  65 2.94  66 2.94
                            34 3.13  35 3.13  46 3.15  46 3.15
  46  0.625  0.875  0.040-  51 2.75  52 2.75  39 2.80  42 2.80  61 2.94  62 2.94  65 2.94  66 2.94
                            34 3.13  35 3.13  45 3.15  45 3.15
  47  0.125  0.375  0.278-  55 2.75  56 2.75  53 2.75  54 2.75  36 2.80  67 2.80  64 2.94  63 2.94
                            60 2.94  59 2.94  48 3.15  48 3.15
  48  0.625  0.375  0.278-  55 2.75  56 2.75  54 2.75  53 2.75  37 2.80  40 2.80  63 2.94  64 2.94
                            59 2.94  60 2.94  47 3.15  47 3.15
  49  0.125  0.875  0.278-  57 2.75  58 2.75  51 2.75  52 2.75  36 2.80  67 2.80  64 2.94  63 2.94
                            60 2.94  59 2.94  50 3.15  50 3.15
  50  0.625  0.875  0.278-  57 2.75  58 2.75  51 2.75  52 2.75  37 2.80  40 2.80  63 2.94  64 2.94
                            59 2.94  60 2.94  49 3.15  49 3.15
  51  0.375  0.875  0.159-  45 2.75  46 2.75  49 2.75  50 2.75  59 2.80  63 2.80  41 2.94  42 2.94
                            38 2.94  39 2.94  52 3.15  52 3.15
  52  0.875  0.875  0.159-  45 2.75  46 2.75  49 2.75  50 2.75  60 2.80  64 2.80  41 2.94  42 2.94
                            38 2.94  39 2.94  51 3.15  51 3.15
  53  0.375  0.375  0.159-  43 2.75  44 2.75  47 2.75  48 2.75  59 2.80  63 2.80  38 2.94  41 2.94
                            39 2.94  42 2.94  54 3.15  54 3.15
  54  0.875  0.375  0.159-  44 2.75  43 2.75  48 2.75  47 2.75  60 2.80  64 2.80  39 2.94  42 2.94
                            41 2.94  38 2.94  53 3.15  53 3.15
  55  0.375  0.375  0.396-   6 2.52   7 2.52  47 2.75  48 2.75  40 2.94  36 2.94  37 2.94  67 2.94
                            56 3.15  56 3.15
  56  0.875  0.375  0.396-   6 2.52   7 2.52  47 2.75  48 2.75  40 2.94  36 2.94  37 2.94  67 2.94
                            55 3.15  55 3.15
  57  0.375  0.875  0.396-  49 2.75  50 2.75  40 2.94  36 2.94  37 2.94  67 2.94   1 2.97  12 2.97
                            13 2.97  58 3.15  58 3.15
  58  0.875  0.875  0.396-  49 2.75  50 2.75  40 2.94  36 2.94  37 2.94  67 2.94   1 2.97  12 2.97
                            13 2.97  57 3.15  57 3.15
  59  0.375  0.625  0.238-  38 2.75  39 2.75  36 2.75  37 2.75  51 2.80  53 2.80  49 2.94  50 2.94
                            47 2.94  48 2.94  60 3.15  60 3.15
  60  0.875  0.625  0.238-  38 2.75  39 2.75  36 2.75  37 2.75  52 2.80  54 2.80  49 2.94  50 2.94
                            47 2.94  48 2.94  59 3.15  59 3.15
  61  0.375  0.625  0.000-  28 2.11  38 2.75  39 2.75  43 2.94  44 2.94  45 2.94  46 2.94  34 3.07
                            62 3.15  62 3.15
  62  0.875  0.625  0.000-  29 2.11  38 2.75  39 2.75  43 2.94  44 2.94  45 2.94  46 2.94  35 3.07
                            61 3.15  61 3.15
  63  0.375  0.125  0.238-  40 2.75  67 2.75  42 2.75  41 2.75  51 2.80  53 2.80  50 2.94  47 2.94
                            48 2.94  49 2.94  64 3.15  64 3.15
  64  0.875  0.125  0.238-  40 2.75  67 2.75  42 2.75  41 2.75  52 2.80  54 2.80  50 2.94  47 2.94
                            48 2.94  49 2.94  63 3.15  63 3.15
  65  0.375  0.125  0.000-  22 2.11  41 2.75  42 2.75  43 2.94  44 2.94  45 2.94  46 2.94  34 3.07
                            66 3.15  66 3.15
  66  0.875  0.125  0.000-  23 2.11  41 2.75  42 2.75  43 2.94  44 2.94  45 2.94  46 2.94  35 3.07
                            65 3.15  65 3.15
  67  0.125  0.125  0.357-  63 2.75  64 2.75  47 2.80  49 2.80  57 2.94  58 2.94  55 2.94  56 2.94
                            40 3.15  40 3.15
 
  LATTYP: Found a simple orthorhombic cell.
 ALAT       =     6.3097600000
 B/A-ratio  =     1.5000000000
 C/A-ratio  =     2.9982639593
  
  Lattice vectors:
  
 A1 = (   6.3097600000,   0.0000000000,   0.0000000000)
 A2 = (   0.0000000000,   9.4646400000,   0.0000000000)
 A3 = (   0.0000000000,   0.0000000000,  18.9183260000)


Analysis of symmetry for initial positions (statically):
=====================================================================
 Subroutine PRICEL returns:
 Original cell was already a primitive cell.
 

 Routine SETGRP: Setting up the symmetry group for a 
 simple orthorhombic supercell.


 Subroutine GETGRP returns: Found  2 space group operations
 (whereof  1 operations were pure point group operations)
 out of a pool of  8 trial point group operations.


The static configuration has the point symmetry C_1 .
 The point group associated with its full space group is C_1h.


Analysis of symmetry for dynamics (positions and initial velocities):
=====================================================================
 Subroutine PRICEL returns:
 Original cell was already a primitive cell.
 

 Routine SETGRP: Setting up the symmetry group for a 
 simple orthorhombic supercell.


 Subroutine GETGRP returns: Found  2 space group operations
 (whereof  1 operations were pure point group operations)
 out of a pool of  8 trial point group operations.


The dynamic configuration has the point symmetry C_1 .
 The point group associated with its full space group is C_1h.


Analysis of constrained symmetry for selective dynamics:
=====================================================================
 Subroutine PRICEL returns:
 Original cell was already a primitive cell.
 

 Routine SETGRP: Setting up the symmetry group for a 
 simple orthorhombic supercell.


 Subroutine GETGRP returns: Found  2 space group operations
 (whereof  1 operations were pure point group operations)
 out of a pool of  8 trial point group operations.


The constrained configuration has the point symmetry C_1 .
 The point group associated with its full space group is C_1h.


 Subroutine INISYM returns: Found  2 space group operations
 (whereof  1 operations are pure point group operations),
 and found     1 'primitive' translations

 
 
 KPOINTS: K-Mesh Generated with KP-Resolved Value 

Automatic generation of k-mesh.
Space group operators:
 irot       det(A)        alpha          n_x          n_y          n_z        tau_x        tau_y        tau_z
    1     1.000000     0.000000     1.000000     0.000000     0.000000     0.000000     0.000000     0.000000
    2    -1.000000   179.999999     1.000000     0.000000     0.000000     0.250000     0.000000     0.000000
 
 Subroutine IBZKPT returns following result:
 ===========================================
 
 Found     12 irreducible k-points:
 
 Following reciprocal coordinates:
            Coordinates               Weight
  0.000000  0.000000  0.000000      1.000000
  0.200000  0.000000  0.000000      2.000000
  0.400000  0.000000  0.000000      2.000000
  0.000000  0.333333  0.000000      2.000000
  0.200000  0.333333  0.000000      4.000000
  0.400000  0.333333  0.000000      4.000000
  0.000000  0.000000  0.500000      1.000000
  0.200000  0.000000  0.500000      2.000000
  0.400000  0.000000  0.500000      2.000000
  0.000000  0.333333  0.500000      2.000000
  0.200000  0.333333  0.500000      4.000000
  0.400000  0.333333  0.500000      4.000000
 
 Following cartesian coordinates:
            Coordinates               Weight
  0.000000  0.000000  0.000000      1.000000
  0.031697  0.000000  0.000000      2.000000
  0.063394  0.000000  0.000000      2.000000
  0.000000  0.035219  0.000000      2.000000
  0.031697  0.035219  0.000000      4.000000
  0.063394  0.035219  0.000000      4.000000
  0.000000  0.000000  0.026429      1.000000
  0.031697  0.000000  0.026429      2.000000
  0.063394  0.000000  0.026429      2.000000
  0.000000  0.035219  0.026429      2.000000
  0.031697  0.035219  0.026429      4.000000
  0.063394  0.035219  0.026429      4.000000
 


--------------------------------------------------------------------------------------------------------




 Dimension of arrays:
   k-points           NKPTS =     12   k-points in BZ     NKDIM =     12   number of bands    NBANDS=    167
   number of dos      NEDOS =    301   number of ions     NIONS =     67
   non local maximal  LDIM  =      5   non local SUM 2l+1 LMDIM =     15
   total plane-waves  NPLWV = 129600
   max r-space proj   IRMAX =   1996   max aug-charges    IRDMAX=   8121
   dimension x,y,z NGX =    30 NGY =   48 NGZ =   90
   dimension x,y,z NGXF=    60 NGYF=   96 NGZF=  180
   support grid    NGXF=    60 NGYF=   96 NGZF=  180
   ions per type =              66   1
   NGX,Y,Z   is equivalent  to a cutoff of   7.90,  8.43,  7.91 a.u.
   NGXF,Y,Z  is equivalent  to a cutoff of  15.81, 16.86, 15.82 a.u.

 SYSTEM =  unknown system                          
 POSCAR =  Optimistic_Structure                    

 Startparameter for this run:
   NWRITE =      2    write-flag & timer
   PREC   = normal    normal or accurate (medium, high low for compatibility)
   ISTART =      0    job   : 0-new  1-cont  2-samecut
   ICHARG =      2    charge: 1-file 2-atom 10-const
   ISPIN  =      1    spin polarized calculation?
   LNONCOLLINEAR =      F non collinear calculations
   LSORBIT =      F    spin-orbit coupling
   INIWAV =      1    electr: 0-lowe 1-rand  2-diag
   LASPH  =      F    aspherical Exc in radial PAW
   METAGGA=      F    non-selfconsistent MetaGGA calc.

 Electronic Relaxation 1
   ENCUT  =  380.0 eV  27.93 Ry    5.28 a.u.  10.03 15.04 30.07*2*pi/ulx,y,z
   ENINI  =  380.0     initial cutoff
   ENAUG  =  328.9 eV  augmentation charge cutoff
   NELM   =    300;   NELMIN=  2; NELMDL= -5     # of ELM steps 
   EDIFF  = 0.5E-07   stopping-criterion for ELM
   LREAL  =      T    real-space projection
   NLSPLINE    = F    spline interpolate recip. space projectors
   LCOMPAT=      F    compatible to vasp.4.4
   GGA_COMPAT  = T    GGA compatible to vasp.4.4-vasp.4.6
   LMAXPAW     = -100 max onsite density
   LMAXMIX     =    2 max onsite mixed and CHGCAR
   VOSKOWN=      0    Vosko Wilk Nusair interpolation
   ROPT   =   -0.00050  -0.00050
 Ionic relaxation
   EDIFFG = -.5E-02   stopping-criterion for IOM
   NSW    =    400    number of steps for IOM
   NBLOCK =      1;   KBLOCK =    400    inner block; outer block 
   IBRION =      2    ionic relax: 0-MD 1-quasi-New 2-CG
   NFREE  =      1    steps in history (QN), initial steepest desc. (CG)
   ISIF   =      2    stress and relaxation
   IWAVPR =     11    prediction:  0-non 1-charg 2-wave 3-comb
   ISYM   =      2    0-nonsym 1-usesym 2-fastsym
   LCORR  =      T    Harris-Foulkes like correction to forces

   POTIM  = 0.5000    time-step for ionic-motion
   TEIN   =    0.0    initial temperature
   TEBEG  =    0.0;   TEEND  =   0.0 temperature during run
   SMASS  =  -3.00    Nose mass-parameter (am)
   estimated Nose-frequenzy (Omega)   =  0.10E-29 period in steps =****** mass=  -0.910E-27a.u.
   SCALEE = 1.0000    scale energy and forces
   NPACO  =    256;   APACO  = 16.0  distance and # of slots for P.C.
   PSTRESS=    0.0 pullay stress

  Mass of Ions in am
   POMASS =  47.88 26.98
  Ionic Valenz
   ZVAL   =   4.00  3.00
  Atomic Wigner-Seitz radii
   RWIGS  =  -1.00 -1.00
  virtual crystal weights 
   VCA    =   1.00  1.00
   NELECT =     267.0000    total number of electrons
   NUPDOWN=      -1.0000    fix difference up-down

 DOS related values:
   EMIN   =  10.00;   EMAX   =-10.00  energy-range for DOS
   EFERMI =   0.00
   ISMEAR =     1;   SIGMA  =   0.05  broadening in eV -4-tet -1-fermi 0-gaus

 Electronic relaxation 2 (details)
   IALGO  =     38    algorithm
   LDIAG  =      T    sub-space diagonalisation (order eigenvalues)
   LSUBROT=      F    optimize rotation matrix (better conditioning)
   TURBO    =      0    0=normal 1=particle mesh
   IRESTART =      0    0=no restart 2=restart with 2 vectors
   NREBOOT  =      0    no. of reboots
   NMIN     =      0    reboot dimension
   EREF     =   0.00    reference energy to select bands
   IMIX   =      4    mixing-type and parameters
     AMIX     =   0.40;   BMIX     =  1.00
     AMIX_MAG =   1.60;   BMIX_MAG =  1.00
     AMIN     =   0.10
     WC   =   100.;   INIMIX=   1;  MIXPRE=   1;  MAXMIX= -45

 Intra band minimization:
   WEIMIN = 0.0010     energy-eigenvalue tresh-hold
   EBREAK =  0.75E-10  absolut break condition
   DEPER  =   0.30     relativ break condition  

   TIME   =   0.40     timestep for ELM

  volume/ion in A,a.u.               =      16.86       113.79
  Fermi-wavevector in a.u.,A,eV,Ry     =   1.012151  1.912688 13.938488  1.024450
  Thomas-Fermi vector in A             =   2.145243
 
 Write flags
   LWAVE        =      F    write WAVECAR
   LDOWNSAMPLE  =      F    k-point downsampling of WAVECAR
   LCHARG       =      T    write CHGCAR
   LVTOT        =      F    write LOCPOT, total local potential
   LVHAR        =      F    write LOCPOT, Hartree potential only
   LELF         =      F    write electronic localiz. function (ELF)
   LORBIT       =      0    0 simple, 1 ext, 2 COOP (PROOUT), +10 PAW based schemes


 Dipole corrections
   LMONO  =      F    monopole corrections only (constant potential shift)
   LDIPOL =      F    correct potential (dipole corrections)
   IDIPOL =      0    1-x, 2-y, 3-z, 4-all directions 
   EPSILON=  1.0000000 bulk dielectric constant

 Exchange correlation treatment:
   GGA     =    PS    GGA type
   LEXCH   =    14    internal setting for exchange type
   VOSKOWN=      0    Vosko Wilk Nusair interpolation
   LHFCALC =     F    Hartree Fock is set to
   LHFONE  =     F    Hartree Fock one center treatment
   AEXX    =    0.0000 exact exchange contribution

 Linear response parameters
   LEPSILON=     F    determine dielectric tensor
   LRPA    =     F    only Hartree local field effects (RPA)
   LNABLA  =     F    use nabla operator in PAW spheres
   LVEL    =     F    velocity operator in full k-point grid
   LINTERFAST=   F  fast interpolation
   KINTER  =     0    interpolate to denser k-point grid
   CSHIFT  =0.1000    complex shift for real part using Kramers Kronig
   OMEGAMAX=  -1.0    maximum frequency
   DEG_THRESHOLD= 0.2000000E-02 threshold for treating states as degnerate
   RTIME   =   -0.100 relaxation time in fs
  (WPLASMAI=    0.000 imaginary part of plasma frequency in eV, 0.658/RTIME)
   DFIELD  = 0.0000000 0.0000000 0.0000000 field for delta impulse in time
 
 Orbital magnetization related:
   ORBITALMAG=     F  switch on orbital magnetization
   LCHIMAG   =     F  perturbation theory with respect to B field
   DQ        =  0.001000  dq finite difference perturbation B field
   LLRAUG    =     F  two centre corrections for induced B field



--------------------------------------------------------------------------------------------------------


 conjugate gradient relaxation of ions
   using selective dynamics as specified on POSCAR
 charge density and potential will be updated during run
 non-spin polarized calculation
 Variant of blocked Davidson
 Davidson routine will perform the subspace rotation
 perform sub-space diagonalisation
    after iterative eigenvector-optimisation
 modified Broyden-mixing scheme, WC =      100.0
 initial mixing is a Kerker type mixing with AMIX =  0.4000 and BMIX =      1.0000
 Hartree-type preconditioning will be used
 using additional bands           33
 real space projection scheme for non local part
 use partial core corrections
 calculate Harris-corrections to forces 
   (improved forces if not selfconsistent)
 use gradient corrections 
 use of overlap-Matrix (Vanderbilt PP)
 Methfessel and Paxton  Order N= 1 SIGMA  =   0.05


--------------------------------------------------------------------------------------------------------


  energy-cutoff  :      380.00
  volume of cell :     1129.79
      direct lattice vectors                 reciprocal lattice vectors
     6.309760000  0.000000000  0.000000000     0.158484633  0.000000000  0.000000000
     0.000000000  9.464640000  0.000000000     0.000000000  0.105656422  0.000000000
     0.000000000  0.000000000 18.918326000     0.000000000  0.000000000  0.052858799

  length of vectors
     6.309760000  9.464640000 18.918326000     0.158484633  0.105656422  0.052858799


 
 k-points in units of 2pi/SCALE and weight: K-Mesh Generated with KP-Resolved Value 
   0.00000000  0.00000000  0.00000000       0.033
   0.03169693  0.00000000  0.00000000       0.067
   0.06339385  0.00000000  0.00000000       0.067
   0.00000000  0.03521881  0.00000000       0.067
   0.03169693  0.03521881  0.00000000       0.133
   0.06339385  0.03521881  0.00000000       0.133
   0.00000000  0.00000000  0.02642940       0.033
   0.03169693  0.00000000  0.02642940       0.067
   0.06339385  0.00000000  0.02642940       0.067
   0.00000000  0.03521881  0.02642940       0.067
   0.03169693  0.03521881  0.02642940       0.133
   0.06339385  0.03521881  0.02642940       0.133
 
 k-points in reciprocal lattice and weights: K-Mesh Generated with KP-Resolved Value 
   0.00000000  0.00000000  0.00000000       0.033
   0.20000000  0.00000000  0.00000000       0.067
   0.40000000  0.00000000  0.00000000       0.067
   0.00000000  0.33333333  0.00000000       0.067
   0.20000000  0.33333333  0.00000000       0.133
   0.40000000  0.33333333  0.00000000       0.133
   0.00000000  0.00000000  0.50000000       0.033
   0.20000000  0.00000000  0.50000000       0.067
   0.40000000  0.00000000  0.50000000       0.067
   0.00000000  0.33333333  0.50000000       0.067
   0.20000000  0.33333333  0.50000000       0.133
   0.40000000  0.33333333  0.50000000       0.133
 
 position of ions in fractional coordinates (direct lattice) 
   0.62500000  0.04166700  0.50000000
   0.12500000  0.04166700  0.65857600
   0.62500000  0.04166700  0.65857600
   0.12500000  0.04166700  0.81715300
   0.62500000  0.04166700  0.81715300
   0.12500000  0.37500000  0.50000000
   0.62500000  0.37500000  0.50000000
   0.12500000  0.37500000  0.65857600
   0.62500000  0.37500000  0.65857600
   0.12500000  0.37500000  0.81715300
   0.62500000  0.37500000  0.81715300
   0.12500000  0.70833300  0.50000000
   0.62500000  0.70833300  0.50000000
   0.12500000  0.70833300  0.65857600
   0.62500000  0.70833300  0.65857600
   0.12500000  0.70833300  0.81715300
   0.62500000  0.70833300  0.81715300
   0.37500000  0.20833300  0.57928800
   0.87500000  0.20833300  0.57928800
   0.37500000  0.20833300  0.73786500
   0.87500000  0.20833300  0.73786500
   0.37500000  0.20833300  0.89644100
   0.87500000  0.20833300  0.89644100
   0.37500000  0.54166700  0.57928800
   0.87500000  0.54166700  0.57928800
   0.37500000  0.54166700  0.73786500
   0.87500000  0.54166700  0.73786500
   0.37500000  0.54166700  0.89644100
   0.87500000  0.54166700  0.89644100
   0.37500000  0.87500000  0.57928800
   0.87500000  0.87500000  0.57928800
   0.37500000  0.87500000  0.73786500
   0.87500000  0.87500000  0.73786500
   0.37500000  0.87500000  0.89644100
   0.87500000  0.87500000  0.89644100
   0.12500000  0.62500000  0.35679700
   0.62500000  0.62500000  0.35679700
   0.12500000  0.62500000  0.11893200
   0.62500000  0.62500000  0.11893200
   0.62500000  0.12500000  0.35679700
   0.12500000  0.12500000  0.11893200
   0.62500000  0.12500000  0.11893200
   0.12500000  0.37500000  0.03964400
   0.62500000  0.37500000  0.03964400
   0.12500000  0.87500000  0.03964400
   0.62500000  0.87500000  0.03964400
   0.12500000  0.37500000  0.27750900
   0.62500000  0.37500000  0.27750900
   0.12500000  0.87500000  0.27750900
   0.62500000  0.87500000  0.27750900
   0.37500000  0.87500000  0.15857600
   0.87500000  0.87500000  0.15857600
   0.37499900  0.37500000  0.15857600
   0.87499900  0.37500000  0.15857600
   0.37500000  0.37500000  0.39644100
   0.87500000  0.37500000  0.39644100
   0.37500000  0.87500000  0.39644100
   0.87500000  0.87500000  0.39644100
   0.37500000  0.62500000  0.23786400
   0.87500000  0.62500000  0.23786400
   0.37500000  0.62500000  0.00000000
   0.87500000  0.62500000  0.00000000
   0.37500000  0.12500000  0.23786500
   0.87500000  0.12500000  0.23786500
   0.37500000  0.12500000  0.00000000
   0.87500000  0.12500000  0.00000000
   0.12500000  0.12500000  0.35679700
 
 position of ions in cartesian coordinates  (Angst):
   3.94360000  0.39436315  9.45916300
   0.78872000  0.39436315 12.45915546
   3.94360000  0.39436315 12.45915546
   0.78872000  0.39436315 15.45916685
   3.94360000  0.39436315 15.45916685
   0.78872000  3.54924000  9.45916300
   3.94360000  3.54924000  9.45916300
   0.78872000  3.54924000 12.45915546
   3.94360000  3.54924000 12.45915546
   0.78872000  3.54924000 15.45916685
   3.94360000  3.54924000 15.45916685
   0.78872000  6.70411685  9.45916300
   3.94360000  6.70411685  9.45916300
   0.78872000  6.70411685 12.45915546
   3.94360000  6.70411685 12.45915546
   0.78872000  6.70411685 15.45916685
   3.94360000  6.70411685 15.45916685
   2.36616000  1.97179685 10.95915923
   5.52104000  1.97179685 10.95915923
   2.36616000  1.97179685 13.95917061
   5.52104000  1.97179685 13.95917061
   2.36616000  1.97179685 16.95916308
   5.52104000  1.97179685 16.95916308
   2.36616000  5.12668315 10.95915923
   5.52104000  5.12668315 10.95915923
   2.36616000  5.12668315 13.95917061
   5.52104000  5.12668315 13.95917061
   2.36616000  5.12668315 16.95916308
   5.52104000  5.12668315 16.95916308
   2.36616000  8.28156000 10.95915923
   5.52104000  8.28156000 10.95915923
   2.36616000  8.28156000 13.95917061
   5.52104000  8.28156000 13.95917061
   2.36616000  8.28156000 16.95916308
   5.52104000  8.28156000 16.95916308
   0.78872000  5.91540000  6.75000196
   3.94360000  5.91540000  6.75000196
   0.78872000  5.91540000  2.24999435
   3.94360000  5.91540000  2.24999435
   3.94360000  1.18308000  6.75000196
   0.78872000  1.18308000  2.24999435
   3.94360000  1.18308000  2.24999435
   0.78872000  3.54924000  0.74999812
   3.94360000  3.54924000  0.74999812
   0.78872000  8.28156000  0.74999812
   3.94360000  8.28156000  0.74999812
   0.78872000  3.54924000  5.25000573
   3.94360000  3.54924000  5.25000573
   0.78872000  8.28156000  5.25000573
   3.94360000  8.28156000  5.25000573
   2.36616000  8.28156000  2.99999246
   5.52104000  8.28156000  2.99999246
   2.36615369  3.54924000  2.99999246
   5.52103369  3.54924000  2.99999246
   2.36616000  3.54924000  7.50000008
   5.52104000  3.54924000  7.50000008
   2.36616000  8.28156000  7.50000008
   5.52104000  8.28156000  7.50000008
   2.36616000  5.91540000  4.49998870
   5.52104000  5.91540000  4.49998870
   2.36616000  5.91540000  0.00000000
   5.52104000  5.91540000  0.00000000
   2.36616000  1.18308000  4.50000761
   5.52104000  1.18308000  4.50000761
   2.36616000  1.18308000  0.00000000
   5.52104000  1.18308000  0.00000000
   0.78872000  1.18308000  6.75000196
 


--------------------------------------------------------------------------------------------------------


 k-point  1 :   0.0000 0.0000 0.0000  plane waves:   18939
 k-point  2 :   0.2000 0.0000 0.0000  plane waves:   19020
 k-point  3 :   0.4000 0.0000 0.0000  plane waves:   19032
 k-point  4 :   0.0000 0.3333 0.0000  plane waves:   18978
 k-point  5 :   0.2000 0.3333 0.0000  plane waves:   19001
 k-point  6 :   0.4000 0.3333 0.0000  plane waves:   19015
 k-point  7 :   0.0000 0.0000 0.5000  plane waves:   18948
 k-point  8 :   0.2000 0.0000 0.5000  plane waves:   18962
 k-point  9 :   0.4000 0.0000 0.5000  plane waves:   19020
 k-point 10 :   0.0000 0.3333 0.5000  plane waves:   18978
 k-point 11 :   0.2000 0.3333 0.5000  plane waves:   19002
 k-point 12 :   0.4000 0.3333 0.5000  plane waves:   19042

 maximum and minimum number of plane-waves per node :      2399     2323

 maximum number of plane-waves:     19042
 maximum index in each direction: 
   IXMAX=   10   IYMAX=   15   IZMAX=   30
   IXMIN=  -10   IYMIN=  -15   IZMIN=  -30


 real space projection operators:
  total allocation   :      14646.20 KBytes
  max/ min on nodes  :       2156.74       1617.98


 parallel 3D FFT for wavefunctions:
    minimum data exchange during FFTs selected (reduces bandwidth)
 parallel 3D FFT for charge:
    minimum data exchange during FFTs selected (reduces bandwidth)


 total amount of memory used by VASP MPI-rank0   129476. kBytes
=======================================================================

   base      :      30000. kBytes
   nonlr-proj:       4881. kBytes
   fftplans  :       5136. kBytes
   grid      :       8497. kBytes
   one-center:         97. kBytes
   wavefun   :      80865. kBytes
 
     INWAV:  cpu time    0.0000: real time    0.0001
 Broyden mixing: mesh for mixing (old mesh)
   NGX = 21   NGY = 31   NGZ = 61
  (NGX  = 60   NGY  = 96   NGZ  =180)
  gives a total of  39711 points

 initial charge density was supplied:
 charge density of overlapping atoms calculated
 number of electron     267.0000000 magnetization 
 keeping initial charge density in first step


--------------------------------------------------------------------------------------------------------


 Maximum index for non-local projection operator          314
 Maximum index for augmentation-charges         1145 (set IRDMAX)


--------------------------------------------------------------------------------------------------------


 First call to EWALD:  gamma=   0.170
 Maximum number of real-space cells 4x 3x 2
 Maximum number of reciprocal cells 2x 3x 5

    FEWALD:  cpu time    0.0020: real time    0.0018


--------------------------------------- Iteration      1(   1)  ---------------------------------------


    POTLOK:  cpu time    0.0520: real time    0.1129
    SETDIJ:  cpu time    0.0100: real time    0.0094
     EDDAV:  cpu time    4.2684: real time    4.2743
       DOS:  cpu time    0.0010: real time    0.0020
    --------------------------------------------
      LOOP:  cpu time    4.3313: real time    4.3985

 eigenvalue-minimisations  :  4008
 total energy-change (2. order) : 0.1028180E+04  (-0.6870264E+04)
 number of electron     267.0000000 magnetization 
 augmentation part      267.0000000 magnetization 

 Free energy of the ion-electron system (eV)
  ---------------------------------------------------
  alpha Z        PSCENC =      1373.97392322
  Ewald energy   TEWEN  =     -8259.07257710
  -Hartree energ DENC   =      -802.81591469
  -exchange      EXHF   =         0.00000000
  -V(xc)+E(xc)   XCENC  =     -2405.96057139
  PAW double counting   =      8284.42552317    -5630.62157508
  entropy T*S    EENTRO =        -0.00224821
  eigenvalues    EBANDS =      2158.43431529
  atomic energy  EATOM  =      6309.81913796
  Solvation  Ediel_sol  =         0.00000000
  ---------------------------------------------------
  free energy    TOTEN  =      1028.18001318 eV

  energy without entropy =     1028.18226138  energy(sigma->0) =     1028.18076258


--------------------------------------------------------------------------------------------------------




--------------------------------------- Iteration      1(   2)  ---------------------------------------


     EDDAV:  cpu time    4.2783: real time    4.2844
       DOS:  cpu time    0.0010: real time    0.0024
    --------------------------------------------
      LOOP:  cpu time    4.2793: real time    4.2868

 eigenvalue-minimisations  :  4008
 total energy-change (2. order) :-0.1387444E+04  (-0.1347269E+04)
 number of electron     267.0000000 magnetization 
 augmentation part      267.0000000 magnetization 

 Free energy of the ion-electron system (eV)
  ---------------------------------------------------
  alpha Z        PSCENC =      1373.97392322
  Ewald energy   TEWEN  =     -8259.07257710
  -Hartree energ DENC   =      -802.81591469
  -exchange      EXHF   =         0.00000000
  -V(xc)+E(xc)   XCENC  =     -2405.96057139
  PAW double counting   =      8284.42552317    -5630.62157508
  entropy T*S    EENTRO =        -0.00110058
  eigenvalues    EBANDS =       770.98922469
  atomic energy  EATOM  =      6309.81913796
  Solvation  Ediel_sol  =         0.00000000
  ---------------------------------------------------
  free energy    TOTEN  =      -359.26392979 eV

  energy without entropy =     -359.26282922  energy(sigma->0) =     -359.26356294


--------------------------------------------------------------------------------------------------------




--------------------------------------- Iteration      1(   3)  ---------------------------------------


     EDDAV:  cpu time    5.8711: real time    5.8801
       DOS:  cpu time    0.0030: real time    0.0026
    --------------------------------------------
      LOOP:  cpu time    5.8741: real time    5.8827

 eigenvalue-minimisations  :  5976
 total energy-change (2. order) :-0.2084452E+03  (-0.1941890E+03)
 number of electron     267.0000000 magnetization 
 augmentation part      267.0000000 magnetization 

 Free energy of the ion-electron system (eV)
  ---------------------------------------------------
  alpha Z        PSCENC =      1373.97392322
  Ewald energy   TEWEN  =     -8259.07257710
  -Hartree energ DENC   =      -802.81591469
  -exchange      EXHF   =         0.00000000
  -V(xc)+E(xc)   XCENC  =     -2405.96057139
  PAW double counting   =      8284.42552317    -5630.62157508
  entropy T*S    EENTRO =         0.00104650
  eigenvalues    EBANDS =       562.54189573
  atomic energy  EATOM  =      6309.81913796
  Solvation  Ediel_sol  =         0.00000000
  ---------------------------------------------------
  free energy    TOTEN  =      -567.70911168 eV

  energy without entropy =     -567.71015818  energy(sigma->0) =     -567.70946051


--------------------------------------------------------------------------------------------------------




--------------------------------------- Iteration      1(   4)  ---------------------------------------


     EDDAV:  cpu time    5.8961: real time    5.9069
       DOS:  cpu time    0.0030: real time    0.0025
    --------------------------------------------
      LOOP:  cpu time    5.8991: real time    5.9095

 eigenvalue-minimisations  :  6000
 total energy-change (2. order) :-0.1676744E+02  (-0.1581625E+02)
 number of electron     267.0000000 magnetization 
 augmentation part      267.0000000 magnetization 

 Free energy of the ion-electron system (eV)
  ---------------------------------------------------
  alpha Z        PSCENC =      1373.97392322
  Ewald energy   TEWEN  =     -8259.07257710
  -Hartree energ DENC   =      -802.81591469
  -exchange      EXHF   =         0.00000000
  -V(xc)+E(xc)   XCENC  =     -2405.96057139
  PAW double counting   =      8284.42552317    -5630.62157508
  entropy T*S    EENTRO =         0.00404759
  eigenvalues    EBANDS =       545.77145255
  atomic energy  EATOM  =      6309.81913796
  Solvation  Ediel_sol  =         0.00000000
  ---------------------------------------------------
  free energy    TOTEN  =      -584.47655376 eV

  energy without entropy =     -584.48060136  energy(sigma->0) =     -584.47790296


--------------------------------------------------------------------------------------------------------




--------------------------------------- Iteration      1(   5)  ---------------------------------------


     EDDAV:  cpu time    5.8321: real time    5.8417
       DOS:  cpu time    0.0030: real time    0.0026
    CHARGE:  cpu time    0.2190: real time    0.2192
    MIXING:  cpu time    0.0030: real time    0.0025
    --------------------------------------------
      LOOP:  cpu time    6.0571: real time    6.0660

 eigenvalue-minimisations  :  5920
 total energy-change (2. order) :-0.7175326E+00  (-0.6901980E+00)
 number of electron     266.9999906 magnetization 
 augmentation part       56.4546941 magnetization 

 Broyden mixing:
  rms(total) = 0.10410E+02    rms(broyden)= 0.10410E+02
  rms(prec ) = 0.11901E+02
  weight for this iteration     100.00

 Free energy of the ion-electron system (eV)
  ---------------------------------------------------
  alpha Z        PSCENC =      1373.97392322
  Ewald energy   TEWEN  =     -8259.07257710
  -Hartree energ DENC   =      -802.81591469
  -exchange      EXHF   =         0.00000000
  -V(xc)+E(xc)   XCENC  =     -2405.96057139
  PAW double counting   =      8284.42552317    -5630.62157508
  entropy T*S    EENTRO =         0.00469722
  eigenvalues    EBANDS =       545.05327034
  atomic energy  EATOM  =      6309.81913796
  Solvation  Ediel_sol  =         0.00000000
  ---------------------------------------------------
  free energy    TOTEN  =      -585.19408635 eV

  energy without entropy =     -585.19878357  energy(sigma->0) =     -585.19565209


--------------------------------------------------------------------------------------------------------




--------------------------------------- Iteration      1(   6)  ---------------------------------------


    POTLOK:  cpu time    0.0490: real time    0.0492
    SETDIJ:  cpu time    0.0100: real time    0.0097
     EDDAV:  cpu time    7.5109: real time    7.5319
       DOS:  cpu time    0.0020: real time    0.0021
    CHARGE:  cpu time    0.1980: real time    0.1983
    MIXING:  cpu time    0.0030: real time    0.0026
    --------------------------------------------
      LOOP:  cpu time    7.7728: real time    7.7939

 eigenvalue-minimisations  :  7942
 total energy-change (2. order) :-0.7911412E+03  (-0.8380128E+03)
 number of electron     266.9999803 magnetization 
 augmentation part      107.1964356 magnetization 

 Broyden mixing:
  rms(total) = 0.12119E+02    rms(broyden)= 0.12119E+02
  rms(prec ) = 0.33508E+02
  weight for this iteration     100.00

 eigenvalues of (default mixing * dielectric matrix)
  average eigenvalue GAMMA=   0.5106
  0.5106

 Free energy of the ion-electron system (eV)
  ---------------------------------------------------
  alpha Z        PSCENC =      1373.97392322
  Ewald energy   TEWEN  =     -8259.07257710
  -Hartree energ DENC   =      -732.80269635
  -exchange      EXHF   =         0.00000000
  -V(xc)+E(xc)   XCENC  =     -2395.38088894
  PAW double counting   =     13554.52205898   -10895.63555462
  entropy T*S    EENTRO =        -0.00224660
  eigenvalues    EBANDS =      -331.75639543
  atomic energy  EATOM  =      6309.81913796
  Solvation  Ediel_sol  =         0.00000000
  ---------------------------------------------------
  free energy    TOTEN  =     -1376.33523889 eV

  energy without entropy =    -1376.33299229  energy(sigma->0) =    -1376.33449002


--------------------------------------------------------------------------------------------------------




--------------------------------------- Iteration      1(   7)  ---------------------------------------


    POTLOK:  cpu time    0.0490: real time    0.0498
    SETDIJ:  cpu time    0.0100: real time    0.0096
     EDDAV:  cpu time    6.9549: real time    6.9652
       DOS:  cpu time    0.0020: real time    0.0025
    CHARGE:  cpu time    0.2080: real time    0.2082
    MIXING:  cpu time    0.0030: real time    0.0027
    --------------------------------------------
      LOOP:  cpu time    7.2269: real time    7.2379

 eigenvalue-minimisations  :  7288
 total energy-change (2. order) : 0.7506914E+03  (-0.8598508E+03)
 number of electron     266.9999891 magnetization 
 augmentation part       89.4519015 magnetization 

 Broyden mixing:
  rms(total) = 0.73078E+01    rms(broyden)= 0.73078E+01
  rms(prec ) = 0.17724E+02
  weight for this iteration     100.00

 eigenvalues of (default mixing * dielectric matrix)
  average eigenvalue GAMMA=   0.4623
  0.7913  0.1332

 Free energy of the ion-electron system (eV)
  ---------------------------------------------------
  alpha Z        PSCENC =      1373.97392322
  Ewald energy   TEWEN  =     -8259.07257710
  -Hartree energ DENC   =      -638.91803098
  -exchange      EXHF   =         0.00000000
  -V(xc)+E(xc)   XCENC  =     -2396.71782551
  PAW double counting   =     13683.38966420   -11034.02816872
  entropy T*S    EENTRO =        -0.00303492
  eigenvalues    EBANDS =       335.91311032
  atomic energy  EATOM  =      6309.81913796
  Solvation  Ediel_sol  =         0.00000000
  ---------------------------------------------------
  free energy    TOTEN  =      -625.64380155 eV

  energy without entropy =     -625.64076663  energy(sigma->0) =     -625.64278991


--------------------------------------------------------------------------------------------------------




--------------------------------------- Iteration      1(   8)  ---------------------------------------


    POTLOK:  cpu time    0.0490: real time    0.0491
    SETDIJ:  cpu time    0.0090: real time    0.0095
     EDDAV:  cpu time    6.8500: real time    6.8608
       DOS:  cpu time    0.0020: real time    0.0027
    CHARGE:  cpu time    0.2160: real time    0.2161
    MIXING:  cpu time    0.0030: real time    0.0028
    --------------------------------------------
      LOOP:  cpu time    7.1289: real time    7.1410

 eigenvalue-minimisations  :  7113
 total energy-change (2. order) : 0.1065304E+03  (-0.2547745E+03)
 number of electron     266.9999901 magnetization 
 augmentation part       72.9858286 magnetization 

 Broyden mixing:
  rms(total) = 0.46269E+01    rms(broyden)= 0.46268E+01
  rms(prec ) = 0.75494E+01
  weight for this iteration     100.00

 eigenvalues of (default mixing * dielectric matrix)
  average eigenvalue GAMMA=   0.5010
  1.0609  0.1392  0.3028

 Free energy of the ion-electron system (eV)
  ---------------------------------------------------
  alpha Z        PSCENC =      1373.97392322
  Ewald energy   TEWEN  =     -8259.07257710
  -Hartree energ DENC   =      -665.43044259
  -exchange      EXHF   =         0.00000000
  -V(xc)+E(xc)   XCENC  =     -2397.50903297
  PAW double counting   =     14489.76653416   -11862.53557850
  entropy T*S    EENTRO =        -0.00355498
  eigenvalues    EBANDS =       491.87817428
  atomic energy  EATOM  =      6309.81913796
  Solvation  Ediel_sol  =         0.00000000
  ---------------------------------------------------
  free energy    TOTEN  =      -519.11341653 eV

  energy without entropy =     -519.10986155  energy(sigma->0) =     -519.11223153


--------------------------------------------------------------------------------------------------------




--------------------------------------- Iteration      1(   9)  ---------------------------------------


    POTLOK:  cpu time    0.0490: real time    0.0505
    SETDIJ:  cpu time    0.0100: real time    0.0099
     EDDAV:  cpu time    6.5090: real time    6.5190
       DOS:  cpu time    0.0020: real time    0.0025
    CHARGE:  cpu time    0.2200: real time    0.2193
    MIXING:  cpu time    0.0030: real time    0.0029
    --------------------------------------------
      LOOP:  cpu time    6.7930: real time    6.8042

 eigenvalue-minimisations  :  6720
 total energy-change (2. order) :-0.7158320E+01  (-0.8030569E+02)
 number of electron     266.9999839 magnetization 
 augmentation part       67.5150472 magnetization 

 Broyden mixing:
  rms(total) = 0.39196E+01    rms(broyden)= 0.39196E+01
  rms(prec ) = 0.69956E+01
  weight for this iteration     100.00

 eigenvalues of (default mixing * dielectric matrix)
  average eigenvalue GAMMA=   0.4800
  1.2565  0.3260  0.1516  0.1859

 Free energy of the ion-electron system (eV)
  ---------------------------------------------------
  alpha Z        PSCENC =      1373.97392322
  Ewald energy   TEWEN  =     -8259.07257710
  -Hartree energ DENC   =      -667.06108649
  -exchange      EXHF   =         0.00000000
  -V(xc)+E(xc)   XCENC  =     -2396.31843958
  PAW double counting   =     15777.04004926   -13157.92353540
  entropy T*S    EENTRO =        -0.00297350
  eigenvalues    EBANDS =       493.27376544
  atomic energy  EATOM  =      6309.81913796
  Solvation  Ediel_sol  =         0.00000000
  ---------------------------------------------------
  free energy    TOTEN  =      -526.27173619 eV

  energy without entropy =     -526.26876269  energy(sigma->0) =     -526.27074502


--------------------------------------------------------------------------------------------------------




--------------------------------------- Iteration      1(  10)  ---------------------------------------


    POTLOK:  cpu time    0.0480: real time    0.0492
    SETDIJ:  cpu time    0.0100: real time    0.0096
     EDDAV:  cpu time    6.2960: real time    6.3054
       DOS:  cpu time    0.0030: real time    0.0028
    CHARGE:  cpu time    0.2180: real time    0.2185
    MIXING:  cpu time    0.0040: real time    0.0030
    --------------------------------------------
      LOOP:  cpu time    6.5790: real time    6.5886

 eigenvalue-minimisations  :  6456
 total energy-change (2. order) : 0.8763894E+01  (-0.1250793E+02)
 number of electron     266.9999851 magnetization 
 augmentation part       66.7009957 magnetization 

 Broyden mixing:
  rms(total) = 0.35185E+01    rms(broyden)= 0.35185E+01
  rms(prec ) = 0.49625E+01
  weight for this iteration     100.00

 eigenvalues of (default mixing * dielectric matrix)
  average eigenvalue GAMMA=   0.3998
  1.2813  0.3051  0.1559  0.1559  0.1007

 Free energy of the ion-electron system (eV)
  ---------------------------------------------------
  alpha Z        PSCENC =      1373.97392322
  Ewald energy   TEWEN  =     -8259.07257710
  -Hartree energ DENC   =      -641.27040557
  -exchange      EXHF   =         0.00000000
  -V(xc)+E(xc)   XCENC  =     -2394.69017691
  PAW double counting   =     16601.60881545   -13982.56350332
  entropy T*S    EENTRO =        -0.00339805
  eigenvalues    EBANDS =       474.69034214
  atomic energy  EATOM  =      6309.81913796
  Solvation  Ediel_sol  =         0.00000000
  ---------------------------------------------------
  free energy    TOTEN  =      -517.50784217 eV

  energy without entropy =     -517.50444412  energy(sigma->0) =     -517.50670949


--------------------------------------------------------------------------------------------------------




--------------------------------------- Iteration      1(  11)  ---------------------------------------


    POTLOK:  cpu time    0.0480: real time    0.0490
    SETDIJ:  cpu time    0.0100: real time    0.0099
     EDDAV:  cpu time    6.2351: real time    6.2456
       DOS:  cpu time    0.0020: real time    0.0028
    CHARGE:  cpu time    0.2190: real time    0.2187
    MIXING:  cpu time    0.0040: real time    0.0031
    --------------------------------------------
      LOOP:  cpu time    6.5180: real time    6.5290

 eigenvalue-minimisations  :  6400
 total energy-change (2. order) : 0.2324798E+01  (-0.1178219E+01)
 number of electron     266.9999854 magnetization 
 augmentation part       66.9300311 magnetization 

 Broyden mixing:
  rms(total) = 0.32962E+01    rms(broyden)= 0.32962E+01
  rms(prec ) = 0.47367E+01
  weight for this iteration     100.00

 eigenvalues of (default mixing * dielectric matrix)
  average eigenvalue GAMMA=   0.4072
  1.3319  0.3009  0.1498  0.1850  0.2378  0.2378

 Free energy of the ion-electron system (eV)
  ---------------------------------------------------
  alpha Z        PSCENC =      1373.97392322
  Ewald energy   TEWEN  =     -8259.07257710
  -Hartree energ DENC   =      -633.80826008
  -exchange      EXHF   =         0.00000000
  -V(xc)+E(xc)   XCENC  =     -2394.13375309
  PAW double counting   =     16896.88239617   -14277.36789659
  entropy T*S    EENTRO =         0.00137074
  eigenvalues    EBANDS =       468.52261446
  atomic energy  EATOM  =      6309.81913796
  Solvation  Ediel_sol  =         0.00000000
  ---------------------------------------------------
  free energy    TOTEN  =      -515.18304431 eV

  energy without entropy =     -515.18441505  energy(sigma->0) =     -515.18350122


--------------------------------------------------------------------------------------------------------




--------------------------------------- Iteration      1(  12)  ---------------------------------------


    POTLOK:  cpu time    0.0480: real time    0.0490
    SETDIJ:  cpu time    0.0110: real time    0.0097
     EDDAV:  cpu time    6.4160: real time    6.4273
       DOS:  cpu time    0.0030: real time    0.0029
    CHARGE:  cpu time    0.2190: real time    0.2189
    MIXING:  cpu time    0.0040: real time    0.0033
    --------------------------------------------
      LOOP:  cpu time    6.7010: real time    6.7112

 eigenvalue-minimisations  :  6632
 total energy-change (2. order) : 0.1258844E+01  (-0.2219396E+00)
 number of electron     266.9999852 magnetization 
 augmentation part       67.2184359 magnetization 

 Broyden mixing:
  rms(total) = 0.31783E+01    rms(broyden)= 0.31783E+01
  rms(prec ) = 0.44886E+01
  weight for this iteration     100.00

 eigenvalues of (default mixing * dielectric matrix)
  average eigenvalue GAMMA=   0.4202
  1.4116  0.4009  0.4009  0.3064  0.1482  0.2016  0.0716

 Free energy of the ion-electron system (eV)
  ---------------------------------------------------
  alpha Z        PSCENC =      1373.97392322
  Ewald energy   TEWEN  =     -8259.07257710
  -Hartree energ DENC   =      -630.20999151
  -exchange      EXHF   =         0.00000000
  -V(xc)+E(xc)   XCENC  =     -2393.85579082
  PAW double counting   =     17047.02431796   -14427.21174127
  entropy T*S    EENTRO =        -0.00117667
  eigenvalues    EBANDS =       465.60969779
  atomic energy  EATOM  =      6309.81913796
  Solvation  Ediel_sol  =         0.00000000
  ---------------------------------------------------
  free energy    TOTEN  =      -513.92420044 eV

  energy without entropy =     -513.92302377  energy(sigma->0) =     -513.92380822


--------------------------------------------------------------------------------------------------------




--------------------------------------- Iteration      1(  13)  ---------------------------------------


    POTLOK:  cpu time    0.0490: real time    0.0502
    SETDIJ:  cpu time    0.0100: real time    0.0098
     EDDAV:  cpu time    5.9361: real time    5.9510
       DOS:  cpu time    0.0020: real time    0.0029
    CHARGE:  cpu time    0.2200: real time    0.2198
    MIXING:  cpu time    0.0040: real time    0.0034
    --------------------------------------------
      LOOP:  cpu time    6.2211: real time    6.2371

 eigenvalue-minimisations  :  5992
 total energy-change (2. order) : 0.2228661E+01  (-0.1262373E+00)
 number of electron     266.9999854 magnetization 
 augmentation part       67.6597482 magnetization 

 Broyden mixing:
  rms(total) = 0.29091E+01    rms(broyden)= 0.29091E+01
  rms(prec ) = 0.39311E+01
  weight for this iteration     100.00

 eigenvalues of (default mixing * dielectric matrix)
  average eigenvalue GAMMA=   0.5194
  1.8515  0.6717  0.6717  0.3316  0.2456  0.1499  0.1706  0.0628

 Free energy of the ion-electron system (eV)
  ---------------------------------------------------
  alpha Z        PSCENC =      1373.97392322
  Ewald energy   TEWEN  =     -8259.07257710
  -Hartree energ DENC   =      -623.58398841
  -exchange      EXHF   =         0.00000000
  -V(xc)+E(xc)   XCENC  =     -2393.31577998
  PAW double counting   =     17335.45962973   -14715.00526638
  entropy T*S    EENTRO =        -0.00333536
  eigenvalues    EBANDS =       460.03271711
  atomic energy  EATOM  =      6309.81913796
  Solvation  Ediel_sol  =         0.00000000
  ---------------------------------------------------
  free energy    TOTEN  =      -511.69553922 eV

  energy without entropy =     -511.69220386  energy(sigma->0) =     -511.69442744


--------------------------------------------------------------------------------------------------------




--------------------------------------- Iteration      1(  14)  ---------------------------------------


    POTLOK:  cpu time    0.0490: real time    0.0495
    SETDIJ:  cpu time    0.0100: real time    0.0097
     EDDAV:  cpu time    5.8761: real time    5.8845
       DOS:  cpu time    0.0020: real time    0.0029
    CHARGE:  cpu time    0.2300: real time    0.2300
    MIXING:  cpu time    0.0040: real time    0.0036
    --------------------------------------------
      LOOP:  cpu time    6.1711: real time    6.1803

 eigenvalue-minimisations  :  5976
 total energy-change (2. order) : 0.8512440E+01  (-0.2304210E+01)
 number of electron     266.9999852 magnetization 
 augmentation part       71.2164220 magnetization 

 Broyden mixing:
  rms(total) = 0.14001E+01    rms(broyden)= 0.14001E+01
  rms(prec ) = 0.24563E+01
  weight for this iteration     100.00

 eigenvalues of (default mixing * dielectric matrix)
  average eigenvalue GAMMA=   0.5123
  1.8641  0.7554  0.7554  0.3227  0.3227  0.2271  0.1508  0.1508  0.0617

 Free energy of the ion-electron system (eV)
  ---------------------------------------------------
  alpha Z        PSCENC =      1373.97392322
  Ewald energy   TEWEN  =     -8259.07257710
  -Hartree energ DENC   =      -587.20310552
  -exchange      EXHF   =         0.00000000
  -V(xc)+E(xc)   XCENC  =     -2389.75683562
  PAW double counting   =     19164.52374222   -16538.78871750
  entropy T*S    EENTRO =        -0.00178956
  eigenvalues    EBANDS =       423.32312315
  atomic energy  EATOM  =      6309.81913796
  Solvation  Ediel_sol  =         0.00000000
  ---------------------------------------------------
  free energy    TOTEN  =      -503.18309874 eV

  energy without entropy =     -503.18130919  energy(sigma->0) =     -503.18250222


--------------------------------------------------------------------------------------------------------




--------------------------------------- Iteration      1(  15)  ---------------------------------------


    POTLOK:  cpu time    0.0490: real time    0.0489
    SETDIJ:  cpu time    0.0100: real time    0.0098
     EDDAV:  cpu time    5.8381: real time    5.8483
       DOS:  cpu time    0.0030: real time    0.0029
    CHARGE:  cpu time    0.2190: real time    0.2187
    MIXING:  cpu time    0.0040: real time    0.0038
    --------------------------------------------
      LOOP:  cpu time    6.1231: real time    6.1325

 eigenvalue-minimisations  :  5944
 total energy-change (2. order) : 0.1805396E+01  (-0.5800794E+00)
 number of electron     266.9999853 magnetization 
 augmentation part       72.1539064 magnetization 

 Broyden mixing:
  rms(total) = 0.99844E+00    rms(broyden)= 0.99843E+00
  rms(prec ) = 0.17564E+01
  weight for this iteration     100.00

 eigenvalues of (default mixing * dielectric matrix)
  average eigenvalue GAMMA=   0.4952
  1.8049  0.8188  0.8188  0.3520  0.3520  0.2152  0.2152  0.1533  0.1602  0.0618

 Free energy of the ion-electron system (eV)
  ---------------------------------------------------
  alpha Z        PSCENC =      1373.97392322
  Ewald energy   TEWEN  =     -8259.07257710
  -Hartree energ DENC   =      -578.24321382
  -exchange      EXHF   =         0.00000000
  -V(xc)+E(xc)   XCENC  =     -2388.89654772
  PAW double counting   =     19480.60071125   -16852.65231029
  entropy T*S    EENTRO =         0.00283825
  eigenvalues    EBANDS =       413.09033546
  atomic energy  EATOM  =      6309.81913796
  Solvation  Ediel_sol  =         0.00000000
  ---------------------------------------------------
  free energy    TOTEN  =      -501.37770279 eV

  energy without entropy =     -501.38054104  energy(sigma->0) =     -501.37864887


--------------------------------------------------------------------------------------------------------




--------------------------------------- Iteration      1(  16)  ---------------------------------------


    POTLOK:  cpu time    0.0480: real time    0.0490
    SETDIJ:  cpu time    0.0100: real time    0.0097
     EDDAV:  cpu time    5.9891: real time    5.9985
       DOS:  cpu time    0.0030: real time    0.0030
    CHARGE:  cpu time    0.2180: real time    0.2185
    MIXING:  cpu time    0.0040: real time    0.0038
    --------------------------------------------
      LOOP:  cpu time    6.2720: real time    6.2826

 eigenvalue-minimisations  :  6064
 total energy-change (2. order) : 0.3482745E+00  (-0.1209529E+00)
 number of electron     266.9999854 magnetization 
 augmentation part       72.3860883 magnetization 

 Broyden mixing:
  rms(total) = 0.90447E+00    rms(broyden)= 0.90447E+00
  rms(prec ) = 0.15520E+01
  weight for this iteration     100.00

 eigenvalues of (default mixing * dielectric matrix)
  average eigenvalue GAMMA=   0.5229
  1.6439  1.0154  1.0154  0.4995  0.4995  0.2563  0.2563  0.1997  0.1520  0.1520
  0.0618

 Free energy of the ion-electron system (eV)
  ---------------------------------------------------
  alpha Z        PSCENC =      1373.97392322
  Ewald energy   TEWEN  =     -8259.07257710
  -Hartree energ DENC   =      -576.11560803
  -exchange      EXHF   =         0.00000000
  -V(xc)+E(xc)   XCENC  =     -2388.69019015
  PAW double counting   =     19500.48110727   -16871.50487672
  entropy T*S    EENTRO =         0.00044305
  eigenvalues    EBANDS =       410.07921216
  atomic energy  EATOM  =      6309.81913796
  Solvation  Ediel_sol  =         0.00000000
  ---------------------------------------------------
  free energy    TOTEN  =      -501.02942834 eV

  energy without entropy =     -501.02987139  energy(sigma->0) =     -501.02957602


--------------------------------------------------------------------------------------------------------




--------------------------------------- Iteration      1(  17)  ---------------------------------------


    POTLOK:  cpu time    0.0480: real time    0.0496
    SETDIJ:  cpu time    0.0110: real time    0.0098
     EDDAV:  cpu time    6.1101: real time    6.1156
       DOS:  cpu time    0.0030: real time    0.0031
    CHARGE:  cpu time    0.2190: real time    0.2205
    MIXING:  cpu time    0.0050: real time    0.0040
    --------------------------------------------
      LOOP:  cpu time    6.3960: real time    6.4025

 eigenvalue-minimisations  :  6248
 total energy-change (2. order) : 0.4791509E+00  (-0.1111748E+00)
 number of electron     266.9999853 magnetization 
 augmentation part       72.8250128 magnetization 

 Broyden mixing:
  rms(total) = 0.76020E+00    rms(broyden)= 0.76020E+00
  rms(prec ) = 0.12666E+01
  weight for this iteration     100.00

 eigenvalues of (default mixing * dielectric matrix)
  average eigenvalue GAMMA=   0.5846
  1.6899  1.6899  1.0865  0.5999  0.5999  0.3208  0.2545  0.2358  0.1532  0.1532
  0.1702  0.0618

 Free energy of the ion-electron system (eV)
  ---------------------------------------------------
  alpha Z        PSCENC =      1373.97392322
  Ewald energy   TEWEN  =     -8259.07257710
  -Hartree energ DENC   =      -572.36462059
  -exchange      EXHF   =         0.00000000
  -V(xc)+E(xc)   XCENC  =     -2388.30922395
  PAW double counting   =     19543.18138381   -16912.32424958
  entropy T*S    EENTRO =        -0.00154552
  eigenvalues    EBANDS =       404.54749429
  atomic energy  EATOM  =      6309.81913796
  Solvation  Ediel_sol  =         0.00000000
  ---------------------------------------------------
  free energy    TOTEN  =      -500.55027746 eV

  energy without entropy =     -500.54873195  energy(sigma->0) =     -500.54976229


--------------------------------------------------------------------------------------------------------




--------------------------------------- Iteration      1(  18)  ---------------------------------------


    POTLOK:  cpu time    0.0480: real time    0.0491
    SETDIJ:  cpu time    0.0110: real time    0.0096
     EDDAV:  cpu time    6.0471: real time    6.0552
       DOS:  cpu time    0.0030: real time    0.0029
    CHARGE:  cpu time    0.2180: real time    0.2179
    MIXING:  cpu time    0.0040: real time    0.0042
    --------------------------------------------
      LOOP:  cpu time    6.3310: real time    6.3388

 eigenvalue-minimisations  :  6184
 total energy-change (2. order) : 0.7229506E+00  (-0.2664920E+00)
 number of electron     266.9999854 magnetization 
 augmentation part       73.7473447 magnetization 

 Broyden mixing:
  rms(total) = 0.45550E+00    rms(broyden)= 0.45549E+00
  rms(prec ) = 0.67642E+00
  weight for this iteration     100.00

 eigenvalues of (default mixing * dielectric matrix)
  average eigenvalue GAMMA=   0.6392
  2.1062  2.1062  1.1557  0.6195  0.6195  0.4442  0.2589  0.2589  0.0618  0.2119
  0.1521  0.1521  0.1621

 Free energy of the ion-electron system (eV)
  ---------------------------------------------------
  alpha Z        PSCENC =      1373.97392322
  Ewald energy   TEWEN  =     -8259.07257710
  -Hartree energ DENC   =      -564.94246290
  -exchange      EXHF   =         0.00000000
  -V(xc)+E(xc)   XCENC  =     -2387.45806021
  PAW double counting   =     19705.83768378   -17071.54398911
  entropy T*S    EENTRO =        -0.00530280
  eigenvalues    EBANDS =       393.56432026
  atomic energy  EATOM  =      6309.81913796
  Solvation  Ediel_sol  =         0.00000000
  ---------------------------------------------------
  free energy    TOTEN  =      -499.82732691 eV

  energy without entropy =     -499.82202411  energy(sigma->0) =     -499.82555931


--------------------------------------------------------------------------------------------------------




--------------------------------------- Iteration      1(  19)  ---------------------------------------


    POTLOK:  cpu time    0.0490: real time    0.0510
    SETDIJ:  cpu time    0.0100: real time    0.0096
     EDDAV:  cpu time    5.9861: real time    5.9958
       DOS:  cpu time    0.0030: real time    0.0031
    CHARGE:  cpu time    0.2170: real time    0.2179
    MIXING:  cpu time    0.0050: real time    0.0044
    --------------------------------------------
      LOOP:  cpu time    6.2700: real time    6.2818

 eigenvalue-minimisations  :  6120
 total energy-change (2. order) : 0.1314648E+00  (-0.1398748E+00)
 number of electron     266.9999852 magnetization 
 augmentation part       74.0341635 magnetization 

 Broyden mixing:
  rms(total) = 0.35006E+00    rms(broyden)= 0.35006E+00
  rms(prec ) = 0.59232E+00
  weight for this iteration     100.00

 eigenvalues of (default mixing * dielectric matrix)
  average eigenvalue GAMMA=   0.6538
  2.3327  2.3327  1.2532  0.6249  0.6249  0.4779  0.2860  0.2725  0.0618  0.2284
  0.1976  0.1534  0.1534  0.1536

 Free energy of the ion-electron system (eV)
  ---------------------------------------------------
  alpha Z        PSCENC =      1373.97392322
  Ewald energy   TEWEN  =     -8259.07257710
  -Hartree energ DENC   =      -563.30622394
  -exchange      EXHF   =         0.00000000
  -V(xc)+E(xc)   XCENC  =     -2387.22319853
  PAW double counting   =     19691.73164359   -17056.12797581
  entropy T*S    EENTRO =        -0.00511428
  eigenvalues    EBANDS =       390.51452283
  atomic energy  EATOM  =      6309.81913796
  Solvation  Ediel_sol  =         0.00000000
  ---------------------------------------------------
  free energy    TOTEN  =      -499.69586206 eV

  energy without entropy =     -499.69074778  energy(sigma->0) =     -499.69415730


--------------------------------------------------------------------------------------------------------




--------------------------------------- Iteration      1(  20)  ---------------------------------------


    POTLOK:  cpu time    0.0480: real time    0.0489
    SETDIJ:  cpu time    0.0100: real time    0.0097
     EDDAV:  cpu time    5.9891: real time    6.0058
       DOS:  cpu time    0.0040: real time    0.0031
    CHARGE:  cpu time    0.2160: real time    0.2179
    MIXING:  cpu time    0.0060: real time    0.0046
    --------------------------------------------
      LOOP:  cpu time    6.2730: real time    6.2899

 eigenvalue-minimisations  :  6096
 total energy-change (2. order) : 0.8613702E-01  (-0.5796769E-01)
 number of electron     266.9999853 magnetization 
 augmentation part       74.0996588 magnetization 

 Broyden mixing:
  rms(total) = 0.26639E+00    rms(broyden)= 0.26639E+00
  rms(prec ) = 0.44071E+00
  weight for this iteration     100.00

 eigenvalues of (default mixing * dielectric matrix)
  average eigenvalue GAMMA=   0.6551
  2.4291  2.4291  1.2863  0.6458  0.6458  0.4682  0.4682  0.2632  0.2632  0.0618
  0.2158  0.1884  0.1527  0.1527  0.1564

 Free energy of the ion-electron system (eV)
  ---------------------------------------------------
  alpha Z        PSCENC =      1373.97392322
  Ewald energy   TEWEN  =     -8259.07257710
  -Hartree energ DENC   =      -562.88490779
  -exchange      EXHF   =         0.00000000
  -V(xc)+E(xc)   XCENC  =     -2387.16633343
  PAW double counting   =     19652.32303097   -17016.27122032
  entropy T*S    EENTRO =        -0.00580067
  eigenvalues    EBANDS =       389.67502210
  atomic energy  EATOM  =      6309.81913796
  Solvation  Ediel_sol  =         0.00000000
  ---------------------------------------------------
[...]


------------------------ aborting loop because EDIFF is reached ----------------------------------------


    CHARGE:  cpu time    0.2190: real time    0.2192
    FORLOC:  cpu time    0.0260: real time    0.0253
    FORNL :  cpu time    1.0988: real time    1.0998
    STRESS:  cpu time    3.3105: real time    3.3154
    FORCOR:  cpu time    0.0740: real time    0.0736
    FORHAR:  cpu time    0.0340: real time    0.0346
    MIXING:  cpu time    0.0030: real time    0.0031
    OFIELD:  cpu time    0.0000: real time    0.0000

  FORCE on cell =-STRESS in cart. coord.  units (eV):
  Direction    XX          YY          ZZ          XY          YZ          ZX
  --------------------------------------------------------------------------------------
  Alpha Z  1373.97392  1373.97392  1373.97392
  Ewald   -2634.20059 -2646.70934 -2982.90785    -0.00000    -9.99473     0.00015
  Hartree   360.72194   324.12447  -131.03559    -0.00000    -5.41518     0.00002
  E(xc)   -1041.56141 -1042.77051 -1057.83844     0.00000     0.39769    -0.00001
  Local      -7.53573    57.31874   924.61261     0.00000    15.95167    -0.00013
  n-local  -195.51883  -186.30247  -233.01622    -1.25397    -1.53009    -0.34200
  augment   386.70927   383.04309   386.28360    -0.00000    -0.14477    -0.00000
  Kinetic  1750.62255  1739.66248  1747.23884     2.65653    -2.65878     0.38500
  Fock        0.00000     0.00000     0.00000     0.00000     0.00000     0.00000
  -------------------------------------------------------------------------------------
  Total      -6.78887     2.34038    27.31088     0.00000    -3.39417     0.00000
  in kB      -9.62739     3.31892    38.72992     0.00000    -4.81332     0.00000
  external pressure =       10.81 kB  Pullay stress =        0.00 kB


 VOLUME and BASIS-vectors are now :
 -----------------------------------------------------------------------------
  energy-cutoff  :      380.00
  volume of cell :     1129.79
      direct lattice vectors                 reciprocal lattice vectors
     6.309760000  0.000000000  0.000000000     0.158484633  0.000000000  0.000000000
     0.000000000  9.464640000  0.000000000     0.000000000  0.105656422  0.000000000
     0.000000000  0.000000000 18.918326000     0.000000000  0.000000000  0.052858799

  length of vectors
     6.309760000  9.464640000 18.918326000     0.158484633  0.105656422  0.052858799


 FORCES acting on ions
    electron-ion (+dipol)            ewald-force                    non-local-force                 convergence-correction
 -----------------------------------------------------------------------------------------------
   0.167E-09 -.665E+01 0.653E+02   -.148E-08 0.595E+01 -.651E+02   0.626E-18 0.553E+00 -.120E+01   0.638E-14 -.516E-03 -.100E-02
   -.164E-09 -.694E-01 0.486E+02   -.932E-11 0.162E+00 -.473E+02   0.111E-17 -.511E-01 -.815E+00   0.324E-14 -.907E-03 0.367E-03
   -.196E-09 -.115E+00 0.352E+02   -.932E-11 0.169E+00 -.354E+02   0.376E-18 0.917E-01 -.368E+00   0.749E-14 -.885E-03 0.311E-03
   0.477E-09 0.906E+00 -.361E+02   -.148E-08 -.107E+01 0.354E+02   -.271E-17 -.821E-02 0.791E+00   0.168E-13 -.526E-03 0.234E-02
   0.945E-10 0.923E+00 -.365E+02   -.148E-08 -.107E+01 0.358E+02   -.610E-19 0.166E-01 0.898E+00   0.334E-14 -.502E-03 0.237E-02
   0.190E-08 0.210E+02 0.572E+02   -.655E-08 -.198E+02 -.552E+02   -.221E-19 -.111E+01 -.203E+01   0.510E-13 -.185E-03 -.151E-02
   0.163E-08 0.100E+02 0.567E+02   -.655E-08 -.103E+02 -.549E+02   -.610E-18 0.202E+00 -.154E+01   -.101E-13 -.323E-03 -.159E-02
   0.189E-09 0.573E+01 0.300E+02   -.213E-10 -.592E+01 -.301E+02   0.129E-17 -.179E+00 -.225E+00   -.150E-13 -.227E-03 0.679E-03
   0.146E-09 0.405E+01 0.282E+02   -.213E-10 -.425E+01 -.284E+02   -.136E-18 0.104E+00 0.103E+00   -.129E-13 -.228E-03 0.652E-03
   0.219E-08 0.840E+00 -.392E+02   -.655E-08 -.843E+00 0.387E+02   -.106E-18 0.200E-01 0.509E+00   0.703E-13 -.441E-04 0.273E-02
   0.147E-08 0.726E+00 -.394E+02   -.655E-08 -.779E+00 0.388E+02   0.585E-18 -.799E-01 0.457E+00   -.246E-13 -.654E-04 0.273E-02
   0.324E-09 -.143E+02 0.641E+02   -.148E-08 0.141E+02 -.638E+02   0.495E-19 -.315E+00 -.141E+01   0.302E-13 0.805E-03 -.110E-02
   0.196E-09 -.329E+01 0.640E+02   -.148E-08 0.436E+01 -.636E+02   -.118E-17 -.944E+00 -.165E+01   -.110E-13 0.826E-03 -.107E-02
   -.166E-09 -.563E+01 0.302E+02   -.932E-11 0.576E+01 -.304E+02   -.983E-19 0.133E+00 -.221E+00   0.401E-14 0.113E-02 0.524E-03
   -.193E-09 -.402E+01 0.285E+02   -.932E-11 0.408E+01 -.286E+02   -.175E-17 -.523E-01 -.120E+00   0.793E-14 0.111E-02 0.533E-03
   0.449E-09 -.178E+01 -.376E+02   -.148E-08 0.192E+01 0.369E+02   -.805E-18 -.443E-02 0.909E+00   0.403E-13 0.569E-03 0.245E-02
   0.120E-09 -.166E+01 -.378E+02   -.148E-08 0.185E+01 0.371E+02   0.669E-18 0.283E-01 0.906E+00   -.197E-13 0.563E-03 0.247E-02
   0.137E+02 0.202E+02 0.724E+02   -.132E+02 -.198E+02 -.712E+02   -.592E+00 -.428E+00 -.156E+01   0.498E-04 -.106E-02 -.623E-03
   -.137E+02 0.202E+02 0.724E+02   0.132E+02 -.198E+02 -.712E+02   0.592E+00 -.428E+00 -.156E+01   -.498E-04 -.106E-02 -.623E-03
   0.713E+00 0.213E+01 0.106E+00   -.715E+00 -.212E+01 -.219E+00   -.104E+00 0.108E+00 0.234E+00   -.137E-04 -.822E-03 0.167E-02
   -.713E+00 0.213E+01 0.106E+00   0.715E+00 -.212E+01 -.219E+00   0.104E+00 0.108E+00 0.234E+00   0.137E-04 -.822E-03 0.167E-02
   0.683E-01 -.884E+01 -.477E+02   -.378E-01 0.114E+02 0.415E+02   -.216E-01 -.112E+01 0.626E+01   0.203E-05 -.418E-03 0.287E-02
   -.683E-01 -.884E+01 -.477E+02   0.378E-01 0.114E+02 0.415E+02   0.216E-01 -.112E+01 0.626E+01   -.203E-05 -.418E-03 0.287E-02
   0.116E+01 -.973E+00 0.570E+02   -.116E+01 0.105E+01 -.562E+02   -.471E-01 -.240E+00 -.882E+00   -.300E-04 0.710E-03 -.517E-03
   -.116E+01 -.973E+00 0.570E+02   0.116E+01 0.105E+01 -.562E+02   0.471E-01 -.240E+00 -.882E+00   0.300E-04 0.710E-03 -.517E-03
   0.203E+00 0.221E+00 -.335E+01   -.212E+00 -.152E+00 0.330E+01   0.708E-01 -.135E+00 0.307E+00   -.279E-04 0.695E-03 0.183E-02
   -.203E+00 0.221E+00 -.335E+01   0.212E+00 -.152E+00 0.330E+01   -.708E-01 -.135E+00 0.307E+00   0.279E-04 0.695E-03 0.183E-02
   0.161E-01 0.922E+01 -.481E+02   -.208E-01 -.117E+02 0.419E+02   0.138E-01 0.115E+01 0.623E+01   -.233E-04 0.413E-03 0.293E-02
   -.161E-01 0.922E+01 -.481E+02   0.208E-01 -.117E+02 0.419E+02   -.138E-01 0.115E+01 0.623E+01   0.233E-04 0.413E-03 0.293E-02
   0.136E+02 -.193E+02 0.691E+02   -.132E+02 0.188E+02 -.689E+02   -.485E+00 0.623E+00 -.642E+00   -.120E-04 0.354E-03 -.301E-03
   -.136E+02 -.193E+02 0.691E+02   0.132E+02 0.188E+02 -.689E+02   0.485E+00 0.623E+00 -.642E+00   0.120E-04 0.354E-03 -.301E-03
   0.749E+00 -.230E+01 0.225E+00   -.716E+00 0.227E+01 0.105E+00   -.124E+00 0.946E-02 -.226E+00   -.531E-04 0.133E-03 0.139E-02
   -.749E+00 -.230E+01 0.225E+00   0.716E+00 0.227E+01 0.105E+00   0.124E+00 0.946E-02 -.226E+00   0.531E-04 0.133E-03 0.139E-02
   0.404E-01 -.371E+00 -.593E+02   -.369E-01 0.374E+00 0.595E+02   -.958E-02 -.120E-01 0.122E+01   -.261E-04 0.476E-05 0.256E-02
   -.404E-01 -.371E+00 -.593E+02   0.369E-01 0.374E+00 0.595E+02   0.958E-02 -.120E-01 0.122E+01   0.261E-04 0.476E-05 0.256E-02
   0.122E-06 -.197E+01 -.848E+01   -.445E-06 0.231E+01 0.819E+01   0.160E-19 -.179E+00 0.101E+01   0.164E-11 0.422E-04 -.265E-02
   0.121E-06 -.911E+00 -.763E+01   -.445E-06 0.127E+01 0.731E+01   -.788E-18 -.171E+00 0.116E+01   0.955E-12 -.692E-05 -.268E-02
   0.783E-05 -.422E+00 -.138E+02   -.281E-04 0.306E+00 0.137E+02   -.133E-18 0.121E+00 0.347E+00   0.733E-10 0.413E-04 -.369E-03
   0.781E-05 -.397E+00 -.136E+02   -.281E-04 0.293E+00 0.135E+02   -.153E-18 0.116E+00 0.338E+00   0.720E-10 0.983E-05 -.377E-03
   0.120E-06 0.219E+01 -.134E+02   -.445E-06 -.236E+01 0.130E+02   -.342E-17 0.953E-01 0.918E+00   0.973E-12 -.112E-03 -.241E-02
   0.785E-05 0.435E+00 -.166E+02   -.281E-04 -.320E+00 0.166E+02   0.896E-19 -.150E+00 0.243E+00   0.735E-10 -.305E-04 -.340E-03
   0.779E-05 0.401E+00 -.156E+02   -.281E-04 -.302E+00 0.156E+02   0.116E-18 -.106E+00 0.307E+00   0.695E-10 -.732E-05 -.330E-03
   0.133E-04 0.529E+00 -.402E+01   -.463E-04 -.538E+00 0.330E+01   0.278E-18 0.176E-01 -.120E+01   0.112E-09 -.538E-05 0.136E-02
   0.132E-04 0.488E+00 -.392E+01   -.463E-04 -.497E+00 0.319E+01   -.646E-18 -.909E-03 -.124E+01   0.108E-09 -.109E-04 0.136E-02
   0.477E-07 -.543E+00 -.556E+01   -.165E-06 0.540E+00 0.537E+01   0.132E-18 0.377E-02 -.536E+00   0.827E-12 -.344E-05 0.111E-02
   0.434E-07 -.511E+00 -.543E+01   -.165E-06 0.498E+00 0.525E+01   -.425E-19 -.119E-01 -.586E+00   0.269E-12 0.128E-04 0.111E-02
   0.129E-04 0.111E+02 -.109E+02   -.463E-04 -.109E+02 0.108E+02   -.107E-18 -.270E+00 0.228E+00   0.106E-09 0.196E-03 -.292E-02
   0.129E-04 0.502E+01 -.753E+01   -.463E-04 -.532E+01 0.779E+01   0.705E-18 0.392E+00 -.410E+00   0.102E-09 -.744E-04 -.274E-02
   0.466E-07 -.122E+02 -.153E+02   -.165E-06 0.118E+02 0.151E+02   -.861E-18 0.575E+00 0.421E+00   0.790E-12 0.176E-03 -.242E-02
   0.437E-07 -.532E+01 -.101E+02   -.165E-06 0.559E+01 0.104E+02   0.753E-18 -.355E+00 -.670E+00   0.245E-12 0.704E-04 -.257E-02
   0.498E+00 -.208E+01 -.117E+02   -.544E+00 0.210E+01 0.115E+02   0.355E-01 0.553E-01 -.383E+00   -.465E-04 0.394E-04 -.123E-02
   -.498E+00 -.208E+01 -.117E+02   0.544E+00 0.210E+01 0.115E+02   -.355E-01 0.553E-01 -.383E+00   0.465E-04 0.394E-04 -.123E-02
   0.412E+00 0.204E+01 -.111E+02   -.489E+00 -.207E+01 0.107E+02   0.715E-01 -.397E-01 -.191E+00   0.149E-04 -.441E-04 -.921E-03
   -.413E+00 0.204E+01 -.111E+02   0.489E+00 -.207E+01 0.107E+02   -.715E-01 -.397E-01 -.191E+00   -.149E-04 -.441E-04 -.921E-03
   0.412E+01 0.122E+02 0.138E+02   -.385E+01 -.122E+02 -.160E+02   -.209E+00 0.132E+00 0.190E+01   0.185E-03 0.164E-04 -.257E-02
   -.412E+01 0.122E+02 0.138E+02   0.385E+01 -.122E+02 -.160E+02   0.209E+00 0.132E+00 0.190E+01   -.185E-03 0.164E-04 -.257E-02
   0.116E+02 -.186E+02 -.711E+00   -.109E+02 0.179E+02 0.895E+00   -.432E+00 0.713E+00 0.234E+00   -.247E-03 0.419E-03 -.191E-02
   -.116E+02 -.186E+02 -.711E+00   0.109E+02 0.179E+02 0.895E+00   0.432E+00 0.713E+00 0.234E+00   0.247E-03 0.419E-03 -.191E-02
   0.431E+00 -.949E+00 -.124E+02   -.462E+00 0.935E+00 0.126E+02   -.614E-01 0.821E-01 0.583E+00   -.436E-04 -.154E-03 -.223E-02
   -.431E+00 -.949E+00 -.124E+02   0.462E+00 0.935E+00 0.126E+02   0.614E-01 0.821E-01 0.583E+00   0.436E-04 -.154E-03 -.223E-02
   0.215E-01 -.481E+01 -.266E+02   -.202E-01 0.741E+01 0.329E+02   0.325E-02 -.139E+01 -.581E+01   -.157E-04 0.215E-03 0.184E-02
   -.215E-01 -.481E+01 -.266E+02   0.202E-01 0.741E+01 0.329E+02   -.325E-02 -.139E+01 -.581E+01   0.157E-04 0.215E-03 0.184E-02
   0.627E+01 0.121E+01 -.232E+02   -.607E+01 -.115E+01 0.233E+02   -.339E-01 -.106E-01 0.770E+00   0.386E-04 0.946E-04 -.225E-02
   -.627E+01 0.121E+01 -.232E+02   0.607E+01 -.115E+01 0.233E+02   0.339E-01 -.106E-01 0.770E+00   -.386E-04 0.946E-04 -.225E-02
   0.403E-01 0.482E+01 -.270E+02   -.467E-01 -.741E+01 0.334E+02   0.253E-01 0.138E+01 -.582E+01   -.262E-06 -.214E-03 0.188E-02
   -.403E-01 0.482E+01 -.270E+02   0.468E-01 -.741E+01 0.334E+02   -.253E-01 0.138E+01 -.582E+01   0.262E-06 -.214E-03 0.188E-02
   0.584E-07 0.801E+01 -.148E+02   -.210E-06 -.759E+01 0.124E+02   0.408E-18 -.412E+00 0.242E+01   0.826E-12 -.546E-03 -.170E-02
 -----------------------------------------------------------------------------------------------
   -.101E-03 0.204E+00 -.210E+01   -.101E-13 0.240E-13 0.168E-11   0.408E-18 -.204E+00 0.216E+01   0.218E-09 0.110E-02 0.414E-02
 
 
 POSITION                                       TOTAL-FORCE (eV/Angst)
 -----------------------------------------------------------------------------------
      3.94360      0.39436      9.45916        -0.000000     -0.151875     -1.067667
      0.78872      0.39436     12.45916        -0.000000      0.040569      0.472729
      3.94360      0.39436     12.45916        -0.000000      0.144619     -0.598483
      0.78872      0.39436     15.45917        -0.000000     -0.176432      0.114719
      3.94360      0.39436     15.45917        -0.000000     -0.134848      0.219232
      0.78872      3.54924      9.45916        -0.000000      0.075584     -0.012546
      3.94360      3.54924      9.45916        -0.000000     -0.115229      0.344260
      0.78872      3.54924     12.45916        -0.000000     -0.369059     -0.386278
      3.94360      3.54924     12.45916        -0.000000     -0.099163     -0.082049
      0.78872      3.54924     15.45917        -0.000000      0.016442     -0.014067
      3.94360      3.54924     15.45917        -0.000000     -0.132244     -0.058771
      0.78872      6.70412      9.45916        -0.000000     -0.522182     -1.164975
      3.94360      6.70412      9.45916        -0.000000      0.128031     -1.257806
      0.78872      6.70412     12.45916        -0.000000      0.261547     -0.384797
      3.94360      6.70412     12.45916        -0.000000      0.014777     -0.196746
      0.78872      6.70412     15.45917        -0.000000      0.130273      0.200542
      3.94360      6.70412     15.45917        -0.000000      0.226458      0.165893
      2.36616      1.97180     10.95916        -0.064451     -0.040073     -0.354611
      5.52104      1.97180     10.95916         0.064451     -0.040073     -0.354611
      2.36616      1.97180     13.95917        -0.106048      0.118070      0.121849
      5.52104      1.97180     13.95917         0.106048      0.118070      0.121849
      2.36616      1.97180     16.95916         0.008856      1.412607      0.083141
      5.52104      1.97180     16.95916        -0.008856      1.412607      0.083141
      2.36616      5.12668     10.95916        -0.047497     -0.165457     -0.112312
      5.52104      5.12668     10.95916         0.047497     -0.165457     -0.112312
      2.36616      5.12668     13.95917         0.062482     -0.066072      0.257227
      5.52104      5.12668     13.95917        -0.062482     -0.066072      0.257227
      2.36616      5.12668     16.95916         0.009053     -1.378267      0.078713
      5.52104      5.12668     16.95916        -0.009053     -1.378267      0.078713
      2.36616      8.28156     10.95916        -0.102436      0.099343     -0.343492
      5.52104      8.28156     10.95916         0.102436      0.099343     -0.343492
      2.36616      8.28156     13.95917        -0.091443     -0.020096      0.104505
      5.52104      8.28156     13.95917         0.091443     -0.020096      0.104505
      2.36616      8.28156     16.95916        -0.006095     -0.009359      1.409674
      5.52104      8.28156     16.95916         0.006095     -0.009359      1.409674
      0.78872      5.91540      6.75000        -0.000000      0.157716      0.711575
      3.94360      5.91540      6.75000        -0.000000      0.188379      0.835958
      0.78872      5.91540      2.24999        -0.000000      0.004744      0.231521
      3.94360      5.91540      2.24999        -0.000000      0.011869      0.209647
      3.94360      1.18308      6.75000        -0.000000     -0.075047      0.532487
      0.78872      1.18308      2.24999        -0.000000     -0.035001      0.274316
      3.94360      1.18308      2.24999        -0.000000     -0.006802      0.225607
      0.78872      3.54924      0.75000        -0.000000      0.009364     -1.921216
      3.94360      3.54924      0.75000        -0.000000     -0.010387     -1.967312
      0.78872      8.28156      0.75000        -0.000000      0.000732     -0.724786
      3.94360      8.28156      0.75000        -0.000000     -0.024462     -0.761316
      0.78872      3.54924      5.25001        -0.000000     -0.024225      0.172025
      3.94360      3.54924      5.25001        -0.000000      0.093982     -0.156978
      0.78872      8.28156      5.25001        -0.000000      0.144469      0.246950
      3.94360      8.28156      5.25001        -0.000000     -0.082438     -0.306151
      2.36616      8.28156      2.99999        -0.011339      0.070040     -0.540166
      5.52104      8.28156      2.99999         0.011339      0.070040     -0.540166
      2.36615      3.54924      2.99999        -0.004922     -0.066338     -0.537879
      5.52103      3.54924      2.99999         0.004922     -0.066338     -0.537879
      2.36616      3.54924      7.50000         0.067952      0.105198     -0.365213
      5.52104      3.54924      7.50000        -0.067952      0.105198     -0.365213
      2.36616      8.28156      7.50000         0.254529     -0.016108      0.414722
      5.52104      8.28156      7.50000        -0.254529     -0.016108      0.414722
      2.36616      5.91540      4.49999        -0.093030      0.068390      0.765161
      5.52104      5.91540      4.49999         0.093030      0.068390      0.765161
      2.36616      5.91540      0.00000         0.004468      1.204527      0.564700
      5.52104      5.91540      0.00000        -0.004468      1.204527      0.564700
      2.36616      1.18308      4.50001         0.164983      0.045783      0.950466
      5.52104      1.18308      4.50001        -0.164983      0.045783      0.950466
      2.36616      1.18308      0.00000         0.018809     -1.208081      0.553496
      5.52104      1.18308      0.00000        -0.018809     -1.208081      0.553496
      0.78872      1.21460      7.02779        -0.000000      0.001630      0.004522
 -----------------------------------------------------------------------------------
    total drift:                               -0.000101      0.001237      0.060927


--------------------------------------------------------------------------------------------------------



  FREE ENERGIE OF THE ION-ELECTRON SYSTEM (eV)
  ---------------------------------------------------
  free  energy   TOTEN  =      -499.62034616 eV

  energy  without entropy=     -499.61682517  energy(sigma->0) =     -499.61917249
 
 d Force = 0.6174676E-06[ 0.239E-06, 0.996E-06]  d Energy = 0.5327929E-06 0.847E-07
 d Force =-0.4001666E-02[-0.401E-02,-0.400E-02]  d Ewald  =-0.4001666E-02 0.418E-10


--------------------------------------------------------------------------------------------------------


    POTLOK:  cpu time    0.0590: real time    0.0586


--------------------------------------------------------------------------------------------------------


 stress matrix after NEB project (eV)
     -6.78887      0.00000      0.00000
      0.00000      2.34038     -3.39417
      0.00000     -3.39417     27.31088
  FORCES: max atom, RMS     0.004807    0.000587
  FORCE total and by dimension    0.004807    0.004522
  Stress total and by dimension   28.644214   27.310877


--------------------------------------------------------------------------------------------------------


  
 reached required accuracy - stopping structural energy minimisation
     LOOP+:  cpu time   35.9895: real time   36.3556
    4ORBIT:  cpu time    0.0000: real time    0.0000

 total amount of memory used by VASP MPI-rank0   129476. kBytes
=======================================================================

   base      :      30000. kBytes
   nonlr-proj:       4881. kBytes
   fftplans  :       5136. kBytes
   grid      :       8497. kBytes
   one-center:         97. kBytes
   wavefun   :      80865. kBytes
 
  
  
 General timing and accounting informations for this job:
 ========================================================
  
                  Total CPU time used (sec):      976.449
                            User time (sec):      973.975
                          System time (sec):        2.474
                         Elapsed time (sec):      981.341
  
                   Maximum memory used (kb):      182604.
                   Average memory used (kb):           0.
  
                          Minor page faults:        25073
                          Major page faults:            0
                 Voluntary context switches:          849
