<?xml version="1.0" encoding="ISO-8859-1"?>
<modeling>
 <generator>
  <i name="program" type="string">vasp </i>
  <i name="version" type="string">5.4.4.18Apr17-6-g9f103f2a35  </i>
  <i name="subversion" type="string">(build Nov 27 2019 20:08:17) complex            parallel </i>
  <i name="platform" type="string">LinuxIFC </i>
  <i name="date" type="string">2020 04 19 </i>
  <i name="time" type="string">09:27:25 </i>
 </generator>
 <incar>
  <i type="string" name="PREC">normal</i>
  <i type="string" name="ALGO"> Normal</i>
  <i type="logical" name="LSORBIT"> F  </i>
  <i type="int" name="ISPIN">     1</i>
  <i type="int" name="ICHARG">     2</i>
  <i type="int" name="NELM">   300</i>
  <i type="int" name="IBRION">     2</i>
  <i name="EDIFF">      0.00000005</i>
  <i name="EDIFFG">     -0.00500000</i>
  <i type="int" name="NSW">   400</i>
  <i type="int" name="ISIF">     2</i>
  <i name="ENCUT">    380.00000000</i>
  <i type="string" name="LREAL"> Auto</i>
  <i type="int" name="ISMEAR">     1</i>
  <i name="SIGMA">      0.05000000</i>
  <i type="logical" name="LWAVE"> F  </i>
  <i type="logical" name="LCHARG"> T  </i>
  <i type="logical" name="LVTOT"> F  </i>
  <i type="logical" name="LVHAR"> F  </i>
  <i type="int" name="LORBIT">     0</i>
  <i type="logical" name="LELF"> F  </i>
  <v type="int" name="KPOINT_BSE">    -1     0     0     0</v>
  <i type="int" name="NELM">   300</i>
  <i type="string" name="GGA"> PS</i>
  <i type="logical" name="LDAU"> F  </i>
 </incar>
 <structure name="primitive_cell" >
  <crystal>
   <varray name="basis" >
    <v>       6.30976000       0.00000000       0.00000000 </v>
    <v>       0.00000000       9.46464000       0.00000000 </v>
    <v>       0.00000000       0.00000000      18.91832600 </v>
   </varray>
   <i name="volume">   1129.79499167 </i>
   <varray name="rec_basis" >
    <v>       0.15848463       0.00000000       0.00000000 </v>
    <v>       0.00000000       0.10565642       0.00000000 </v>
    <v>       0.00000000       0.00000000       0.05285880 </v>
   </varray>
  </crystal>
  <varray name="positions" >
   <v>      -0.37500000       0.04166700      -0.50000000 </v>
   <v>       0.37500000       0.20833300      -0.42071200 </v>
   <v>      -0.12500000       0.20833300      -0.42071200 </v>
   <v>       0.37500000      -0.12500000      -0.42071200 </v>
   <v>      -0.12500000      -0.12500000      -0.42071200 </v>
   <v>      -0.37500000       0.12500000       0.35679700 </v>
   <v>       0.37500000      -0.12500000       0.39644100 </v>
   <v>      -0.12500000      -0.12500000       0.39644100 </v>
   <v>      -0.37500000       0.04166700      -0.34142400 </v>
   <v>      -0.37500000       0.37500000      -0.50000000 </v>
   <v>      -0.37500000      -0.29166700      -0.50000000 </v>
   <v>       0.37500000       0.37500000       0.39644100 </v>
   <v>      -0.12500000       0.37500000       0.39644100 </v>
   <v>       0.12500000       0.12500000       0.35679700 </v>
   <v>      -0.37500000       0.37500000      -0.34142400 </v>
   <v>       0.12500000       0.04166700      -0.34142400 </v>
   <v>      -0.37500000      -0.29166700      -0.34142400 </v>
   <v>       0.12500000       0.37500000      -0.50000000 </v>
   <v>       0.12500000      -0.29166700      -0.50000000 </v>
   <v>      -0.37500000      -0.12500000       0.27750900 </v>
   <v>      -0.37500000      -0.37500000       0.35679700 </v>
   <v>       0.37500000       0.20833300      -0.26213500 </v>
   <v>      -0.12500000       0.20833300      -0.26213500 </v>
   <v>       0.37500000      -0.12500000      -0.26213500 </v>
   <v>      -0.12500000      -0.12500000      -0.26213500 </v>
   <v>       0.37500000      -0.45833300      -0.42071200 </v>
   <v>      -0.12500000      -0.45833300      -0.42071200 </v>
   <v>      -0.37500000       0.37500000       0.27750900 </v>
   <v>       0.37500000       0.12500000       0.23786500 </v>
   <v>      -0.12500000       0.12500000       0.23786500 </v>
   <v>       0.12500000       0.37500000      -0.34142400 </v>
   <v>       0.12500000      -0.29166700      -0.34142400 </v>
   <v>       0.12500000      -0.12500000       0.27750900 </v>
   <v>       0.12500000      -0.37500000       0.35679700 </v>
   <v>      -0.37500000       0.04166700      -0.18284700 </v>
   <v>       0.12500000       0.37500000       0.27750900 </v>
   <v>       0.37500000      -0.37500000       0.23786400 </v>
   <v>      -0.12500000      -0.37500000       0.23786400 </v>
   <v>       0.37500000      -0.45833300      -0.26213500 </v>
   <v>      -0.12500000      -0.45833300      -0.26213500 </v>
   <v>      -0.37500000       0.37500000      -0.18284700 </v>
   <v>       0.12500000       0.04166700      -0.18284700 </v>
   <v>      -0.37500000      -0.29166700      -0.18284700 </v>
   <v>       0.37500000      -0.12500000       0.15857600 </v>
   <v>      -0.12500000      -0.12500000       0.15857600 </v>
   <v>      -0.37500000       0.12500000       0.11893200 </v>
   <v>      -0.12500100       0.37500000       0.15857600 </v>
   <v>       0.37499900       0.37500000       0.15857600 </v>
   <v>       0.12500000       0.37500000      -0.18284700 </v>
   <v>       0.12500000      -0.29166700      -0.18284700 </v>
   <v>       0.37500000       0.20833300      -0.10355900 </v>
   <v>      -0.12500000       0.20833300      -0.10355900 </v>
   <v>       0.37500000      -0.12500000      -0.10355900 </v>
   <v>      -0.12500000      -0.12500000      -0.10355900 </v>
   <v>       0.12500000       0.12500000       0.11893200 </v>
   <v>      -0.37500000      -0.37500000       0.11893200 </v>
   <v>       0.12500000      -0.37500000       0.11893200 </v>
   <v>      -0.37500000      -0.12500000       0.03964400 </v>
   <v>       0.37500000      -0.45833300      -0.10355900 </v>
   <v>      -0.12500000      -0.45833300      -0.10355900 </v>
   <v>      -0.37500000       0.37500000       0.03964400 </v>
   <v>       0.12500000      -0.12500000       0.03964400 </v>
   <v>       0.37500000       0.12500000       0.00000000 </v>
   <v>      -0.12500000       0.12500000       0.00000000 </v>
   <v>       0.12500000       0.37500000       0.03964400 </v>
   <v>       0.37500000      -0.37500000       0.00000000 </v>
   <v>      -0.12500000      -0.37500000       0.00000000 </v>
  </varray>
 </structure>
 <varray name="primitive_index" >
  <v type="int" >        1 </v>
  <v type="int" >       18 </v>
  <v type="int" >       19 </v>
  <v type="int" >       30 </v>
  <v type="int" >       31 </v>
  <v type="int" >       40 </v>
  <v type="int" >       57 </v>
  <v type="int" >       58 </v>
  <v type="int" >        3 </v>
  <v type="int" >        7 </v>
  <v type="int" >       13 </v>
  <v type="int" >       55 </v>
  <v type="int" >       56 </v>
  <v type="int" >       67 </v>
  <v type="int" >        9 </v>
  <v type="int" >        2 </v>
  <v type="int" >       15 </v>
  <v type="int" >        6 </v>
  <v type="int" >       12 </v>
  <v type="int" >       50 </v>
  <v type="int" >       37 </v>
  <v type="int" >       20 </v>
  <v type="int" >       21 </v>
  <v type="int" >       32 </v>
  <v type="int" >       33 </v>
  <v type="int" >       24 </v>
  <v type="int" >       25 </v>
  <v type="int" >       48 </v>
  <v type="int" >       63 </v>
  <v type="int" >       64 </v>
  <v type="int" >        8 </v>
  <v type="int" >       14 </v>
  <v type="int" >       49 </v>
  <v type="int" >       36 </v>
  <v type="int" >        5 </v>
  <v type="int" >       47 </v>
  <v type="int" >       59 </v>
  <v type="int" >       60 </v>
  <v type="int" >       26 </v>
  <v type="int" >       27 </v>
  <v type="int" >       11 </v>
  <v type="int" >        4 </v>
  <v type="int" >       17 </v>
  <v type="int" >       51 </v>
  <v type="int" >       52 </v>
  <v type="int" >       42 </v>
  <v type="int" >       54 </v>
  <v type="int" >       53 </v>
  <v type="int" >       10 </v>
  <v type="int" >       16 </v>
  <v type="int" >       22 </v>
  <v type="int" >       23 </v>
  <v type="int" >       34 </v>
  <v type="int" >       35 </v>
  <v type="int" >       41 </v>
  <v type="int" >       39 </v>
  <v type="int" >       38 </v>
  <v type="int" >       46 </v>
  <v type="int" >       28 </v>
  <v type="int" >       29 </v>
  <v type="int" >       44 </v>
  <v type="int" >       45 </v>
  <v type="int" >       65 </v>
  <v type="int" >       66 </v>
  <v type="int" >       43 </v>
  <v type="int" >       61 </v>
  <v type="int" >       62 </v>
 </varray>
 <kpoints>
  <generation param="Gamma">
   <v type="int" name="divisions">       5        3        2 </v>
   <v name="usershift">      0.00000000       0.00000000       0.00000000 </v>
   <v name="genvec1">      0.20000000       0.00000000       0.00000000 </v>
   <v name="genvec2">      0.00000000       0.33333333       0.00000000 </v>
   <v name="genvec3">      0.00000000       0.00000000       0.50000000 </v>
   <v name="shift">      0.00000000       0.00000000       0.00000000 </v>
  </generation>
  <varray name="kpointlist" >
   <v>       0.00000000       0.00000000       0.00000000 </v>
   <v>       0.20000000       0.00000000       0.00000000 </v>
   <v>       0.40000000       0.00000000       0.00000000 </v>
   <v>       0.00000000       0.33333333       0.00000000 </v>
   <v>       0.20000000       0.33333333       0.00000000 </v>
   <v>       0.40000000       0.33333333       0.00000000 </v>
   <v>       0.00000000       0.00000000       0.50000000 </v>
   <v>       0.20000000       0.00000000       0.50000000 </v>
   <v>       0.40000000       0.00000000       0.50000000 </v>
   <v>       0.00000000       0.33333333       0.50000000 </v>
   <v>       0.20000000       0.33333333       0.50000000 </v>
   <v>       0.40000000       0.33333333       0.50000000 </v>
  </varray>
  <varray name="weights" >
   <v>       0.03333333 </v>
   <v>       0.06666667 </v>
   <v>       0.06666667 </v>
   <v>       0.06666667 </v>
   <v>       0.13333333 </v>
   <v>       0.13333333 </v>
   <v>       0.03333333 </v>
   <v>       0.06666667 </v>
   <v>       0.06666667 </v>
   <v>       0.06666667 </v>
   <v>       0.13333333 </v>
   <v>       0.13333333 </v>
  </varray>
 </kpoints>
 <parameters>
  <separator name="general" >
   <i type="string" name="SYSTEM">unknown system</i>
   <i type="logical" name="LCOMPAT"> F  </i>
  </separator>
  <separator name="electronic" >
   <i type="string" name="PREC">normal</i>
   <i name="ENMAX">    380.00000000</i>
   <i name="ENAUG">    328.88300000</i>
   <i name="EDIFF">      0.00000005</i>
   <i type="int" name="IALGO">    38</i>
   <i type="int" name="IWAVPR">    11</i>
   <i type="int" name="NBANDS">   167</i>
   <i name="NELECT">    267.00000000</i>
   <i type="int" name="TURBO">     0</i>
   <i type="int" name="IRESTART">     0</i>
   <i type="int" name="NREBOOT">     0</i>
   <i type="int" name="NMIN">     0</i>
   <i name="EREF">      0.00000000</i>
   <separator name="electronic smearing" >
    <i type="int" name="ISMEAR">     1</i>
    <i name="SIGMA">      0.05000000</i>
    <i name="KSPACING">      0.50000000</i>
    <i type="logical" name="KGAMMA"> T  </i>
   </separator>
   <separator name="electronic projectors" >
    <i type="logical" name="LREAL"> T  </i>
    <v name="ROPT">     -0.00050000     -0.00050000</v>
    <i type="int" name="LMAXPAW">  -100</i>
    <i type="int" name="LMAXMIX">     2</i>
    <i type="logical" name="NLSPLINE"> F  </i>
   </separator>
   <separator name="electronic startup" >
    <i type="int" name="ISTART">     0</i>
    <i type="int" name="ICHARG">     2</i>
    <i type="int" name="INIWAV">     1</i>
   </separator>
   <separator name="electronic spin" >
    <i type="int" name="ISPIN">     1</i>
    <i type="logical" name="LNONCOLLINEAR"> F  </i>
    <v name="MAGMOM">      1.00000000      1.00000000      1.00000000      1.00000000      1.00000000      1.00000000      1.00000000      1.00000000      1.00000000      1.00000000      1.00000000      1.00000000      1.00000000      1.00000000      1.00000000      1.00000000      1.00000000      1.00000000      1.00000000      1.00000000
      1.00000000      1.00000000      1.00000000      1.00000000      1.00000000      1.00000000      1.00000000      1.00000000      1.00000000      1.00000000      1.00000000      1.00000000      1.00000000      1.00000000      1.00000000      1.00000000      1.00000000      1.00000000      1.00000000      1.00000000
      1.00000000      1.00000000      1.00000000      1.00000000      1.00000000      1.00000000      1.00000000      1.00000000      1.00000000      1.00000000      1.00000000      1.00000000      1.00000000      1.00000000      1.00000000      1.00000000      1.00000000      1.00000000      1.00000000      1.00000000
      1.00000000      1.00000000      1.00000000      1.00000000      1.00000000      1.00000000      1.00000000</v>
    <i name="NUPDOWN">     -1.00000000</i>
    <i type="logical" name="LSORBIT"> F  </i>
    <v name="SAXIS">      0.00000000      0.00000000      1.00000000</v>
    <i type="logical" name="LSPIRAL"> F  </i>
    <v name="QSPIRAL">      0.00000000      0.00000000      0.00000000</v>
    <i type="logical" name="LZEROZ"> F  </i>
   </separator>
   <separator name="electronic exchange-correlation" >
    <i type="logical" name="LASPH"> F  </i>
    <i type="logical" name="LMETAGGA"> F  </i>
   </separator>
   <separator name="electronic convergence" >
    <i type="int" name="NELM">   300</i>
    <i type="int" name="NELMDL">    -5</i>
    <i type="int" name="NELMIN">     2</i>
    <i name="ENINI">    380.00000000</i>
    <separator name="electronic convergence detail" >
     <i type="logical" name="LDIAG"> T  </i>
     <i type="logical" name="LSUBROT"> F  </i>
     <i name="WEIMIN">      0.00100000</i>
     <i name="EBREAK">      0.00000000</i>
     <i name="DEPER">      0.30000000</i>
     <i type="int" name="NRMM">     4</i>
     <i name="TIME">      0.40000000</i>
    </separator>
   </separator>
   <separator name="electronic mixer" >
    <i name="AMIX">      0.40000000</i>
    <i name="BMIX">      1.00000000</i>
    <i name="AMIN">      0.10000000</i>
    <i name="AMIX_MAG">      1.60000000</i>
    <i name="BMIX_MAG">      1.00000000</i>
    <separator name="electronic mixer details" >
     <i type="int" name="IMIX">     4</i>
     <i type="logical" name="MIXFIRST"> F  </i>
     <i type="int" name="MAXMIX">   -45</i>
     <i name="WC">    100.00000000</i>
     <i type="int" name="INIMIX">     1</i>
     <i type="int" name="MIXPRE">     1</i>
     <i type="int" name="MREMOVE">     5</i>
    </separator>
   </separator>
   <separator name="electronic dipolcorrection" >
    <i type="logical" name="LDIPOL"> F  </i>
    <i type="logical" name="LMONO"> F  </i>
    <i type="int" name="IDIPOL">     0</i>
    <i name="EPSILON">      1.00000000</i>
    <v name="DIPOL">   -100.00000000   -100.00000000   -100.00000000</v>
    <i name="EFIELD">      0.00000000</i>
   </separator>
  </separator>
  <separator name="grids" >
   <i type="int" name="NGX">    30</i>
   <i type="int" name="NGY">    48</i>
   <i type="int" name="NGZ">    90</i>
   <i type="int" name="NGXF">    60</i>
   <i type="int" name="NGYF">    96</i>
   <i type="int" name="NGZF">   180</i>
   <i type="logical" name="ADDGRID"> F  </i>
  </separator>
  <separator name="ionic" >
   <i type="int" name="NSW">   400</i>
   <i type="int" name="IBRION">     2</i>
   <i type="int" name="MDALGO">     0</i>
   <i type="int" name="ISIF">     2</i>
   <i name="PSTRESS">      0.00000000</i>
   <i name="EDIFFG">     -0.00500000</i>
   <i type="int" name="NFREE">     1</i>
   <i name="POTIM">      0.50000000</i>
   <i name="SMASS">     -3.00000000</i>
   <i name="SCALEE">      1.00000000</i>
  </separator>
  <separator name="ionic md" >
   <i name="TEBEG">      0.00010000</i>
   <i name="TEEND">      0.00010000</i>
   <i type="int" name="NBLOCK">     1</i>
   <i type="int" name="KBLOCK">   400</i>
   <i type="int" name="NPACO">   256</i>
   <i name="APACO">     16.00000000</i>
  </separator>
  <separator name="symmetry" >
   <i type="int" name="ISYM">     2</i>
   <i name="SYMPREC">      0.00001000</i>
  </separator>
  <separator name="dos" >
   <i type="int" name="LORBIT">     0</i>
   <v name="RWIGS">     -1.00000000     -1.00000000</v>
   <i type="int" name="NEDOS">   301</i>
   <i name="EMIN">     10.00000000</i>
   <i name="EMAX">    -10.00000000</i>
   <i name="EFERMI">      0.00000000</i>
  </separator>
  <separator name="writing" >
   <i type="int" name="NWRITE">     2</i>
   <i type="logical" name="LWAVE"> F  </i>
   <i type="logical" name="LDOWNSAMPLE"> F  </i>
   <i type="logical" name="LCHARG"> T  </i>
   <i type="logical" name="LPARD"> F  </i>
   <i type="logical" name="LVTOT"> F  </i>
   <i type="logical" name="LVHAR"> F  </i>
   <i type="logical" name="LELF"> F  </i>
   <i type="logical" name="LOPTICS"> F  </i>
   <v name="STM">      0.00000000      0.00000000      0.00000000      0.00000000      0.00000000      0.00000000      0.00000000</v>
  </separator>
  <separator name="performance" >
   <i type="int" name="NPAR">     1</i>
   <i type="int" name="NSIM">     4</i>
   <i type="int" name="NBLK">    -1</i>
   <i type="logical" name="LPLANE"> T  </i>
   <i type="logical" name="LSCALAPACK"> T  </i>
   <i type="logical" name="LSCAAWARE"> F  </i>
   <i type="logical" name="LSCALU"> F  </i>
   <i type="logical" name="LASYNC"> F  </i>
   <i type="logical" name="LORBITALREAL"> F  </i>
  </separator>
  <separator name="miscellaneous" >
   <i type="int" name="IDIOT">     3</i>
   <i type="int" name="ISPECIAL">     0</i>
   <i type="logical" name="LMUSIC"> F  </i>
   <v name="POMASS">     47.88000000     26.98100000</v>
   <v name="DARWINR">      0.00000000      0.00000000</v>
   <v name="DARWINV">      1.00000000      1.00000000</v>
   <i type="logical" name="LCORR"> T  </i>
  </separator>
  <i type="logical" name="GGA_COMPAT"> T  </i>
  <i type="logical" name="LBERRY"> F  </i>
  <i type="int" name="ICORELEVEL">     0</i>
  <i type="logical" name="LDAU"> F  </i>
  <i type="int" name="I_CONSTRAINED_M">     0</i>
  <separator name="electronic exchange-correlation" >
   <i type="string" name="GGA">PS</i>
   <i type="int" name="VOSKOWN">     0</i>
   <i type="logical" name="LHFCALC"> F  </i>
   <i type="string" name="PRECFOCK"></i>
   <i type="logical" name="LSYMGRAD"> F  </i>
   <i type="logical" name="LHFONE"> F  </i>
   <i type="logical" name="LRHFCALC"> F  </i>
   <i type="logical" name="LTHOMAS"> F  </i>
   <i type="logical" name="LMODELHF"> F  </i>
   <i name="ENCUT4O">     -1.00000000</i>
   <i type="int" name="EXXOEP">     0</i>
   <i type="int" name="FOURORBIT">     0</i>
   <i name="AEXX">      0.00000000</i>
   <i name="HFALPHA">      0.00000000</i>
   <i name="MCALPHA">      0.00000000</i>
   <i name="ALDAX">      1.00000000</i>
   <i name="AGGAX">      1.00000000</i>
   <i name="ALDAC">      1.00000000</i>
   <i name="AGGAC">      1.00000000</i>
   <i type="int" name="NKREDX">     1</i>
   <i type="int" name="NKREDY">     1</i>
   <i type="int" name="NKREDZ">     1</i>
   <i type="logical" name="SHIFTRED"> F  </i>
   <i type="logical" name="ODDONLY"> F  </i>
   <i type="logical" name="EVENONLY"> F  </i>
   <i type="int" name="LMAXFOCK">     0</i>
   <i type="int" name="NMAXFOCKAE">     0</i>
   <i type="logical" name="LFOCKAEDFT"> F  </i>
   <i name="HFSCREEN">      0.00000000</i>
   <i name="HFSCREENC">      0.00000000</i>
   <i type="int" name="NBANDSGWLOW">     0</i>
  </separator>
  <separator name="vdW DFT" >
   <i type="logical" name="LUSE_VDW"> F  </i>
   <i name="Zab_VDW">     -0.84910000</i>
   <i name="PARAM1">      0.12340000</i>
   <i name="PARAM2">      1.00000000</i>
   <i name="PARAM3">      0.00000000</i>
  </separator>
  <separator name="model GW" >
   <i type="int" name="MODEL_GW">     0</i>
   <i name="MODEL_EPS0">     10.11756709</i>
   <i name="MODEL_ALPHA">      1.00000000</i>
  </separator>
  <separator name="linear response parameters" >
   <i type="logical" name="LEPSILON"> F  </i>
   <i type="logical" name="LRPA"> F  </i>
   <i type="logical" name="LNABLA"> F  </i>
   <i type="logical" name="LVEL"> F  </i>
   <i type="int" name="KINTER">     0</i>
   <i name="CSHIFT">      0.10000000</i>
   <i name="OMEGAMAX">     -1.00000000</i>
   <i name="DEG_THRESHOLD">      0.00200000</i>
   <i name="RTIME">     -0.10000000</i>
   <i name="WPLASMAI">      0.00000000</i>
   <v name="DFIELD">      0.00000000      0.00000000      0.00000000</v>
   <v name="WPLASMA">      0.00000000      0.00000000      0.00000000      0.00000000      0.00000000      0.00000000      0.00000000      0.00000000      0.00000000</v>
  </separator>
  <separator name="orbital magnetization" >
   <i type="logical" name="NUCIND"> F  </i>
   <v name="MAGPOS">      0.00000000      0.00000000      0.00000000</v>
   <i type="logical" name="LNICSALL"> T  </i>
   <i type="logical" name="ORBITALMAG"> F  </i>
   <i type="logical" name="LMAGBLOCH"> F  </i>
   <i type="logical" name="LCHIMAG"> F  </i>
   <i type="logical" name="LGAUGE"> T  </i>
   <i type="int" name="MAGATOM">     0</i>
   <v name="MAGDIPOL">      0.00000000      0.00000000      0.00000000</v>
   <v name="AVECCONST">      0.00000000      0.00000000      0.00000000</v>
  </separator>
  <separator name="response functions" >
   <i type="logical" name="LADDER"> F  </i>
   <i type="logical" name="LRPAFORCE"> F  </i>
   <i type="logical" name="LFXC"> F  </i>
   <i type="logical" name="LHARTREE"> T  </i>
   <i type="int" name="IBSE">     0</i>
   <v type="int" name="KPOINT">    -1     0     0     0</v>
   <i type="logical" name="LTCTE"> F  </i>
   <i type="logical" name="LTETE"> F  </i>
   <i type="logical" name="LTRIPLET"> F  </i>
   <i type="logical" name="LFXCEPS"> F  </i>
   <i type="logical" name="LFXHEG"> F  </i>
   <i type="int" name="NATURALO">     2</i>
   <i type="logical" name="L2ORDER"> F  </i>
   <i type="logical" name="LMP2LT"> F  </i>
   <i type="logical" name="LUSEW"> F  </i>
   <i name="ENCUTGW">     -2.00000000</i>
   <i name="ENCUTGWSOFT">     -2.00000000</i>
   <i name="ENCUTLF">     -1.00000000</i>
   <i type="int" name="LMAXMP2">    -1</i>
   <i name="SCISSOR">      0.00000000</i>
   <i type="int" name="NOMEGA">     0</i>
   <i type="int" name="NOMEGAR">     0</i>
   <i type="int" name="NBANDSGW">    -1</i>
   <i type="int" name="NBANDSO">    -1</i>
   <i type="int" name="NBANDSV">    -1</i>
   <i type="int" name="NELM">   300</i>
   <i type="int" name="NELMHF">     1</i>
   <i type="int" name="DIM">     3</i>
   <i type="int" name="ANTIRES">     0</i>
   <i name="OMEGAMAX">    -30.00000000</i>
   <i name="OMEGAMIN">    -30.00000000</i>
   <i name="OMEGATL">   -200.00000000</i>
   <i type="int" name="OMEGAGRID">   140</i>
   <i name="CSHIFT">     -0.10000000</i>
   <i type="logical" name="SELFENERGY"> F  </i>
   <i type="logical" name="LSPECTRAL"> F  </i>
   <i type="logical" name="LSPECTRALGW"> F  </i>
   <i type="logical" name="LSINGLES"> F  </i>
   <i type="logical" name="LFERMIGW"> F  </i>
   <i type="logical" name="ODDONLYGW"> F  </i>
   <i type="logical" name="EVENONLYGW"> F  </i>
   <i type="int" name="NKREDLFX">     1</i>
   <i type="int" name="NKREDLFY">     1</i>
   <i type="int" name="NKREDLFZ">     1</i>
   <i type="int" name="MAXMEM">  2800</i>
   <i type="int" name="TELESCOPE">     0</i>
   <i type="int" name="TAUPAR">     1</i>
   <i type="int" name="OMEGAPAR">    -1</i>
   <i name="LAMBDA">      1.00000000</i>
  </separator>
  <separator name="External order field" >
   <i name="OFIELD_KAPPA">      0.00000000</i>
   <v name="OFIELD_K">      0.00000000      0.00000000      0.00000000</v>
   <i name="OFIELD_Q6_NEAR">      0.00000000</i>
   <i name="OFIELD_Q6_FAR">      0.00000000</i>
   <i name="OFIELD_A">      0.00000000</i>
  </separator>
 </parameters>
 <atominfo>
  <atoms>      67 </atoms>
  <types>       2 </types>
  <array name="atoms" >
   <dimension dim="1">ion</dimension>
   <field type="string">element</field>
   <field type="int">atomtype</field>
   <set>
    <rc><c>Ti</c><c>   1</c></rc>
    <rc><c>Ti</c><c>   1</c></rc>
    <rc><c>Ti</c><c>   1</c></rc>
    <rc><c>Ti</c><c>   1</c></rc>
    <rc><c>Ti</c><c>   1</c></rc>
    <rc><c>Ti</c><c>   1</c></rc>
    <rc><c>Ti</c><c>   1</c></rc>
    <rc><c>Ti</c><c>   1</c></rc>
    <rc><c>Ti</c><c>   1</c></rc>
    <rc><c>Ti</c><c>   1</c></rc>
    <rc><c>Ti</c><c>   1</c></rc>
    <rc><c>Ti</c><c>   1</c></rc>
    <rc><c>Ti</c><c>   1</c></rc>
    <rc><c>Ti</c><c>   1</c></rc>
    <rc><c>Ti</c><c>   1</c></rc>
    <rc><c>Ti</c><c>   1</c></rc>
    <rc><c>Ti</c><c>   1</c></rc>
    <rc><c>Ti</c><c>   1</c></rc>
    <rc><c>Ti</c><c>   1</c></rc>
    <rc><c>Ti</c><c>   1</c></rc>
    <rc><c>Ti</c><c>   1</c></rc>
    <rc><c>Ti</c><c>   1</c></rc>
    <rc><c>Ti</c><c>   1</c></rc>
    <rc><c>Ti</c><c>   1</c></rc>
    <rc><c>Ti</c><c>   1</c></rc>
    <rc><c>Ti</c><c>   1</c></rc>
    <rc><c>Ti</c><c>   1</c></rc>
    <rc><c>Ti</c><c>   1</c></rc>
    <rc><c>Ti</c><c>   1</c></rc>
    <rc><c>Ti</c><c>   1</c></rc>
    <rc><c>Ti</c><c>   1</c></rc>
    <rc><c>Ti</c><c>   1</c></rc>
    <rc><c>Ti</c><c>   1</c></rc>
    <rc><c>Ti</c><c>   1</c></rc>
    <rc><c>Ti</c><c>   1</c></rc>
    <rc><c>Ti</c><c>   1</c></rc>
    <rc><c>Ti</c><c>   1</c></rc>
    <rc><c>Ti</c><c>   1</c></rc>
    <rc><c>Ti</c><c>   1</c></rc>
    <rc><c>Ti</c><c>   1</c></rc>
    <rc><c>Ti</c><c>   1</c></rc>
    <rc><c>Ti</c><c>   1</c></rc>
    <rc><c>Ti</c><c>   1</c></rc>
    <rc><c>Ti</c><c>   1</c></rc>
    <rc><c>Ti</c><c>   1</c></rc>
    <rc><c>Ti</c><c>   1</c></rc>
    <rc><c>Ti</c><c>   1</c></rc>
    <rc><c>Ti</c><c>   1</c></rc>
    <rc><c>Ti</c><c>   1</c></rc>
    <rc><c>Ti</c><c>   1</c></rc>
    <rc><c>Ti</c><c>   1</c></rc>
    <rc><c>Ti</c><c>   1</c></rc>
    <rc><c>Ti</c><c>   1</c></rc>
    <rc><c>Ti</c><c>   1</c></rc>
    <rc><c>Ti</c><c>   1</c></rc>
    <rc><c>Ti</c><c>   1</c></rc>
    <rc><c>Ti</c><c>   1</c></rc>
    <rc><c>Ti</c><c>   1</c></rc>
    <rc><c>Ti</c><c>   1</c></rc>
    <rc><c>Ti</c><c>   1</c></rc>
    <rc><c>Ti</c><c>   1</c></rc>
    <rc><c>Ti</c><c>   1</c></rc>
    <rc><c>Ti</c><c>   1</c></rc>
    <rc><c>Ti</c><c>   1</c></rc>
    <rc><c>Ti</c><c>   1</c></rc>
    <rc><c>Ti</c><c>   1</c></rc>
    <rc><c>Al</c><c>   2</c></rc>
   </set>
  </array>
  <array name="atomtypes" >
   <dimension dim="1">type</dimension>
   <field type="int">atomspertype</field>
   <field type="string">element</field>
   <field>mass</field>
   <field>valence</field>
   <field type="string">pseudopotential</field>
   <set>
    <rc><c>  66</c><c>Ti</c><c>     47.88000000</c><c>      4.00000000</c><c>  PAW_PBE Ti 08Apr2002                  </c></rc>
    <rc><c>   1</c><c>Al</c><c>     26.98100000</c><c>      3.00000000</c><c>  PAW_PBE Al 04Jan2001                  </c></rc>
   </set>
  </array>
 </atominfo>
 <structure name="initialpos" >
  <crystal>
   <varray name="basis" >
    <v>       6.30976000       0.00000000       0.00000000 </v>
    <v>       0.00000000       9.46464000       0.00000000 </v>
    <v>       0.00000000       0.00000000      18.91832600 </v>
   </varray>
   <i name="volume">   1129.79499167 </i>
   <varray name="rec_basis" >
    <v>       0.15848463       0.00000000       0.00000000 </v>
    <v>       0.00000000       0.10565642       0.00000000 </v>
    <v>       0.00000000       0.00000000       0.05285880 </v>
   </varray>
  </crystal>
  <varray name="positions" >
   <v>       0.62500000       0.04166700       0.50000000 </v>
   <v>       0.12500000       0.04166700       0.65857600 </v>
   <v>       0.62500000       0.04166700       0.65857600 </v>
   <v>       0.12500000       0.04166700       0.81715300 </v>
   <v>       0.62500000       0.04166700       0.81715300 </v>
   <v>       0.12500000       0.37500000       0.50000000 </v>
   <v>       0.62500000       0.37500000       0.50000000 </v>
   <v>       0.12500000       0.37500000       0.65857600 </v>
   <v>       0.62500000       0.37500000       0.65857600 </v>
   <v>       0.12500000       0.37500000       0.81715300 </v>
   <v>       0.62500000       0.37500000       0.81715300 </v>
   <v>       0.12500000       0.70833300       0.50000000 </v>
   <v>       0.62500000       0.70833300       0.50000000 </v>
   <v>       0.12500000       0.70833300       0.65857600 </v>
   <v>       0.62500000       0.70833300       0.65857600 </v>
   <v>       0.12500000       0.70833300       0.81715300 </v>
   <v>       0.62500000       0.70833300       0.81715300 </v>
   <v>       0.37500000       0.20833300       0.57928800 </v>
   <v>       0.87500000       0.20833300       0.57928800 </v>
   <v>       0.37500000       0.20833300       0.73786500 </v>
   <v>       0.87500000       0.20833300       0.73786500 </v>
   <v>       0.37500000       0.20833300       0.89644100 </v>
   <v>       0.87500000       0.20833300       0.89644100 </v>
   <v>       0.37500000       0.54166700       0.57928800 </v>
   <v>       0.87500000       0.54166700       0.57928800 </v>
   <v>       0.37500000       0.54166700       0.73786500 </v>
   <v>       0.87500000       0.54166700       0.73786500 </v>
   <v>       0.37500000       0.54166700       0.89644100 </v>
   <v>       0.87500000       0.54166700       0.89644100 </v>
   <v>       0.37500000       0.87500000       0.57928800 </v>
   <v>       0.87500000       0.87500000       0.57928800 </v>
   <v>       0.37500000       0.87500000       0.73786500 </v>
   <v>       0.87500000       0.87500000       0.73786500 </v>
   <v>       0.37500000       0.87500000       0.89644100 </v>
   <v>       0.87500000       0.87500000       0.89644100 </v>
   <v>       0.12500000       0.62500000       0.35679700 </v>
   <v>       0.62500000       0.62500000       0.35679700 </v>
   <v>       0.12500000       0.62500000       0.11893200 </v>
   <v>       0.62500000       0.62500000       0.11893200 </v>
   <v>       0.62500000       0.12500000       0.35679700 </v>
   <v>       0.12500000       0.12500000       0.11893200 </v>
   <v>       0.62500000       0.12500000       0.11893200 </v>
   <v>       0.12500000       0.37500000       0.03964400 </v>
   <v>       0.62500000       0.37500000       0.03964400 </v>
   <v>       0.12500000       0.87500000       0.03964400 </v>
   <v>       0.62500000       0.87500000       0.03964400 </v>
   <v>       0.12500000       0.37500000       0.27750900 </v>
   <v>       0.62500000       0.37500000       0.27750900 </v>
   <v>       0.12500000       0.87500000       0.27750900 </v>
   <v>       0.62500000       0.87500000       0.27750900 </v>
   <v>       0.37500000       0.87500000       0.15857600 </v>
   <v>       0.87500000       0.87500000       0.15857600 </v>
   <v>       0.37499900       0.37500000       0.15857600 </v>
   <v>       0.87499900       0.37500000       0.15857600 </v>
   <v>       0.37500000       0.37500000       0.39644100 </v>
   <v>       0.87500000       0.37500000       0.39644100 </v>
   <v>       0.37500000       0.87500000       0.39644100 </v>
   <v>       0.87500000       0.87500000       0.39644100 </v>
   <v>       0.37500000       0.62500000       0.23786400 </v>
   <v>       0.87500000       0.62500000       0.23786400 </v>
   <v>       0.37500000       0.62500000       0.00000000 </v>
   <v>       0.87500000       0.62500000       0.00000000 </v>
   <v>       0.37500000       0.12500000       0.23786500 </v>
   <v>       0.87500000       0.12500000       0.23786500 </v>
   <v>       0.37500000       0.12500000       0.00000000 </v>
   <v>       0.87500000       0.12500000       0.00000000 </v>
   <v>       0.12500000       0.12500000       0.35679700 </v>
  </varray>
  <varray name="selective"  type="logical" >
   <v type="logical" >  F  F  F </v>
   <v type="logical" >  F  F  F </v>
   <v type="logical" >  F  F  F </v>
   <v type="logical" >  F  F  F </v>
   <v type="logical" >  F  F  F </v>
   <v type="logical" >  F  F  F </v>
   <v type="logical" >  F  F  F </v>
   <v type="logical" >  F  F  F </v>
   <v type="logical" >  F  F  F </v>
   <v type="logical" >  F  F  F </v>
   <v type="logical" >  F  F  F </v>
   <v type="logical" >  F  F  F </v>
   <v type="logical" >  F  F  F </v>
   <v type="logical" >  F  F  F </v>
   <v type="logical" >  F  F  F </v>
   <v type="logical" >  F  F  F </v>
   <v type="logical" >  F  F  F </v>
   <v type="logical" >  F  F  F </v>
   <v type="logical" >  F  F  F </v>
   <v type="logical" >  F  F  F </v>
   <v type="logical" >  F  F  F </v>
   <v type="logical" >  F  F  F </v>
   <v type="logical" >  F  F  F </v>
   <v type="logical" >  F  F  F </v>
   <v type="logical" >  F  F  F </v>
   <v type="logical" >  F  F  F </v>
   <v type="logical" >  F  F  F </v>
   <v type="logical" >  F  F  F </v>
   <v type="logical" >  F  F  F </v>
   <v type="logical" >  F  F  F </v>
   <v type="logical" >  F  F  F </v>
   <v type="logical" >  F  F  F </v>
   <v type="logical" >  F  F  F </v>
   <v type="logical" >  F  F  F </v>
   <v type="logical" >  F  F  F </v>
   <v type="logical" >  F  F  F </v>
   <v type="logical" >  F  F  F </v>
   <v type="logical" >  F  F  F </v>
   <v type="logical" >  F  F  F </v>
   <v type="logical" >  F  F  F </v>
   <v type="logical" >  F  F  F </v>
   <v type="logical" >  F  F  F </v>
   <v type="logical" >  F  F  F </v>
   <v type="logical" >  F  F  F </v>
   <v type="logical" >  F  F  F </v>
   <v type="logical" >  F  F  F </v>
   <v type="logical" >  F  F  F </v>
   <v type="logical" >  F  F  F </v>
   <v type="logical" >  F  F  F </v>
   <v type="logical" >  F  F  F </v>
   <v type="logical" >  F  F  F </v>
   <v type="logical" >  F  F  F </v>
   <v type="logical" >  F  F  F </v>
   <v type="logical" >  F  F  F </v>
   <v type="logical" >  F  F  F </v>
   <v type="logical" >  F  F  F </v>
   <v type="logical" >  F  F  F </v>
   <v type="logical" >  F  F  F </v>
   <v type="logical" >  F  F  F </v>
   <v type="logical" >  F  F  F </v>
   <v type="logical" >  F  F  F </v>
   <v type="logical" >  F  F  F </v>
   <v type="logical" >  F  F  F </v>
   <v type="logical" >  F  F  F </v>
   <v type="logical" >  F  F  F </v>
   <v type="logical" >  F  F  F </v>
   <v type="logical" >  T  T  T </v>
  </varray>
  <nose>
   <v>      -3.00000000       0.00000000       0.00010000       0.00010000 </v>
  </nose>
 </structure>
 <calculation>
  <scstep>
   <time name="dav">    4.27    4.27</time>
   <time name="total">    4.33    4.40</time>
   <energy>
    <i name="alphaZ">   1373.97392322 </i>
    <i name="ewald">  -8259.07257710 </i>
    <i name="hartreedc">   -802.81591469 </i>
    <i name="XCdc">  -2405.96057139 </i>
    <i name="pawpsdc">   8284.42552317 </i>
    <i name="pawaedc">  -5630.62157508 </i>
    <i name="eentropy">     -0.00224821 </i>
    <i name="bandstr">   2158.43431529 </i>
    <i name="atom">   6309.81913796 </i>
    <i name="e_fr_energy">   1028.18001318 </i>
    <i name="e_wo_entrp">   1028.18226138 </i>
    <i name="e_0_energy">   1028.18076258 </i>
   </energy>
  </scstep>
  <scstep>
   <time name="dav">    4.28    4.28</time>
   <time name="total">    4.28    4.29</time>
   <energy>
    <i name="e_fr_energy">   -359.26392979 </i>
    <i name="e_wo_entrp">   -359.26282922 </i>
    <i name="e_0_energy">   -359.26356294 </i>
   </energy>
  </scstep>
  <scstep>
   <time name="dav">    5.87    5.88</time>
   <time name="total">    5.87    5.88</time>
   <energy>
    <i name="e_fr_energy">   -567.70911168 </i>
    <i name="e_wo_entrp">   -567.71015818 </i>
    <i name="e_0_energy">   -567.70946051 </i>
   </energy>
  </scstep>
  <scstep>
   <time name="dav">    5.90    5.91</time>
   <time name="total">    5.90    5.91</time>
   <energy>
    <i name="e_fr_energy">   -584.47655376 </i>
    <i name="e_wo_entrp">   -584.48060136 </i>
    <i name="e_0_energy">   -584.47790296 </i>
   </energy>
  </scstep>
  <scstep>
   <time name="dav">    5.83    5.84</time>
   <time name="total">    6.06    6.07</time>
   <energy>
    <i name="e_fr_energy">   -585.19408635 </i>
    <i name="e_wo_entrp">   -585.19878357 </i>
    <i name="e_0_energy">   -585.19565209 </i>
   </energy>
  </scstep>
  <scstep>
   <time name="dav">    7.51    7.53</time>
   <time name="total">    7.77    7.79</time>
   <energy>
    <i name="e_fr_energy">  -1376.33523889 </i>
    <i name="e_wo_entrp">  -1376.33299229 </i>
    <i name="e_0_energy">  -1376.33449002 </i>
   </energy>
  </scstep>
  <scstep>
   <time name="dav">    6.95    6.97</time>
   <time name="total">    7.23    7.24</time>
   <energy>
    <i name="e_fr_energy">   -625.64380155 </i>
    <i name="e_wo_entrp">   -625.64076663 </i>
    <i name="e_0_energy">   -625.64278991 </i>
   </energy>
  </scstep>
  <scstep>
   <time name="dav">    6.85    6.86</time>
   <time name="total">    7.13    7.14</time>
   <energy>
    <i name="e_fr_energy">   -519.11341653 </i>
    <i name="e_wo_entrp">   -519.10986155 </i>
    <i name="e_0_energy">   -519.11223153 </i>
   </energy>
  </scstep>
  <scstep>
   <time name="dav">    6.51    6.52</time>
   <time name="total">    6.79    6.80</time>
   <energy>
    <i name="e_fr_energy">   -526.27173619 </i>
    <i name="e_wo_entrp">   -526.26876269 </i>
    <i name="e_0_energy">   -526.27074502 </i>
   </energy>
  </scstep>
  <scstep>
   <time name="dav">    6.30    6.31</time>
   <time name="total">    6.58    6.59</time>
   <energy>
    <i name="e_fr_energy">   -517.50784217 </i>
    <i name="e_wo_entrp">   -517.50444412 </i>
    <i name="e_0_energy">   -517.50670949 </i>
   </energy>
  </scstep>
  <scstep>
   <time name="dav">    6.24    6.25</time>
   <time name="total">    6.52    6.53</time>
   <energy>
    <i name="e_fr_energy">   -515.18304431 </i>
    <i name="e_wo_entrp">   -515.18441505 </i>
    <i name="e_0_energy">   -515.18350122 </i>
   </energy>
  </scstep>
  <scstep>
   <time name="dav">    6.42    6.43</time>
   <time name="total">    6.70    6.71</time>
   <energy>
    <i name="e_fr_energy">   -513.92420044 </i>
    <i name="e_wo_entrp">   -513.92302377 </i>
    <i name="e_0_energy">   -513.92380822 </i>
   </energy>
  </scstep>
  <scstep>
   <time name="dav">    5.94    5.95</time>
   <time name="total">    6.22    6.24</time>
   <energy>
    <i name="e_fr_energy">   -511.69553922 </i>
    <i name="e_wo_entrp">   -511.69220386 </i>
    <i name="e_0_energy">   -511.69442744 </i>
   </energy>
  </scstep>
  <scstep>
   <time name="dav">    5.88    5.88</time>
   <time name="total">    6.17    6.18</time>
   <energy>
    <i name="e_fr_energy">   -503.18309874 </i>
    <i name="e_wo_entrp">   -503.18130919 </i>
    <i name="e_0_energy">   -503.18250222 </i>
   </energy>
  </scstep>
  <scstep>
   <time name="dav">    5.84    5.85</time>
   <time name="total">    6.12    6.13</time>
   <energy>
    <i name="e_fr_energy">   -501.37770279 </i>
    <i name="e_wo_entrp">   -501.38054104 </i>
    <i name="e_0_energy">   -501.37864887 </i>
   </energy>
  </scstep>
  <scstep>
   <time name="dav">    5.99    6.00</time>
   <time name="total">    6.27    6.28</time>
   <energy>
    <i name="e_fr_energy">   -501.02942834 </i>
    <i name="e_wo_entrp">   -501.02987139 </i>
    <i name="e_0_energy">   -501.02957602 </i>
   </energy>
  </scstep>
  <scstep>
   <time name="dav">    6.11    6.12</time>
   <time name="total">    6.40    6.40</time>
   <energy>
    <i name="e_fr_energy">   -500.55027746 </i>
    <i name="e_wo_entrp">   -500.54873195 </i>
    <i name="e_0_energy">   -500.54976229 </i>
   </energy>
  </scstep>
  <scstep>
   <time name="dav">    6.05    6.06</time>
   <time name="total">    6.33    6.34</time>
   <energy>
    <i name="e_fr_energy">   -499.82732691 </i>
    <i name="e_wo_entrp">   -499.82202411 </i>
    <i name="e_0_energy">   -499.82555931 </i>
   </energy>
  </scstep>
  <scstep>
   <time name="dav">    5.99    6.00</time>
   <time name="total">    6.27    6.28</time>
   <energy>
    <i name="e_fr_energy">   -499.69586206 </i>
    <i name="e_wo_entrp">   -499.69074778 </i>
    <i name="e_0_energy">   -499.69415730 </i>
   </energy>
  </scstep>
  <scstep>
   <time name="dav">    5.99    6.01</time>
   <time name="total">    6.27    6.29</time>
   <energy>
    <i name="e_fr_energy">   -499.60972504 </i>
    <i name="e_wo_entrp">   -499.60392438 </i>
    <i name="e_0_energy">   -499.60779149 </i>
   </energy>
  </scstep>
  <scstep>
   <time name="dav">    6.11    6.11</time>
   <time name="total">    6.39    6.40</time>
   <energy>
    <i name="e_fr_energy">   -499.56411927 </i>
    <i name="e_wo_entrp">   -499.55819342 </i>
    <i name="e_0_energy">   -499.56214398 </i>
   </energy>
  </scstep>
  <scstep>
   <time name="dav">    6.06    6.07</time>
   <time name="total">    6.34    6.35</time>
   <energy>
    <i name="e_fr_energy">   -499.53099376 </i>
    <i name="e_wo_entrp">   -499.52654097 </i>
    <i name="e_0_energy">   -499.52950950 </i>
   </energy>
  </scstep>
  <scstep>
   <time name="dav">    6.00    6.00</time>
   <time name="total">    6.28    6.29</time>
   <energy>
    <i name="e_fr_energy">   -499.51291184 </i>
    <i name="e_wo_entrp">   -499.50930684 </i>
    <i name="e_0_energy">   -499.51171017 </i>
   </energy>
  </scstep>
  <scstep>
   <time name="dav">    5.98    5.98</time>
   <time name="total">    6.26    6.27</time>
   <energy>
    <i name="e_fr_energy">   -499.50116970 </i>
    <i name="e_wo_entrp">   -499.49743014 </i>
    <i name="e_0_energy">   -499.49992318 </i>
   </energy>
  </scstep>
  <scstep>
   <time name="dav">    5.99    6.00</time>
   <time name="total">    6.27    6.28</time>
   <energy>
    <i name="e_fr_energy">   -499.49668611 </i>
    <i name="e_wo_entrp">   -499.49323009 </i>
    <i name="e_0_energy">   -499.49553410 </i>
   </energy>
  </scstep>
  <scstep>
   <time name="dav">    6.16    6.16</time>
   <time name="total">    6.44    6.45</time>
   <energy>
    <i name="e_fr_energy">   -499.49630691 </i>
    <i name="e_wo_entrp">   -499.49258694 </i>
    <i name="e_0_energy">   -499.49506692 </i>
   </energy>
  </scstep>
  <scstep>
   <time name="dav">    6.04    6.06</time>
   <time name="total">    6.33    6.34</time>
   <energy>
    <i name="e_fr_energy">   -499.49647030 </i>
    <i name="e_wo_entrp">   -499.49293507 </i>
    <i name="e_0_energy">   -499.49529189 </i>
   </energy>
  </scstep>
  <scstep>
   <time name="dav">    6.00    6.01</time>
   <time name="total">    6.29    6.29</time>
   <energy>
    <i name="e_fr_energy">   -499.49637679 </i>
    <i name="e_wo_entrp">   -499.49273485 </i>
    <i name="e_0_energy">   -499.49516281 </i>
   </energy>
  </scstep>
  <scstep>
   <time name="dav">    5.96    5.97</time>
   <time name="total">    6.25    6.26</time>
   <energy>
    <i name="e_fr_energy">   -499.49620010 </i>
    <i name="e_wo_entrp">   -499.49259851 </i>
    <i name="e_0_energy">   -499.49499957 </i>
   </energy>
  </scstep>
  <scstep>
   <time name="dav">    5.74    5.75</time>
   <time name="total">    6.03    6.04</time>
   <energy>
    <i name="e_fr_energy">   -499.49611108 </i>
    <i name="e_wo_entrp">   -499.49251459 </i>
    <i name="e_0_energy">   -499.49491225 </i>
   </energy>
  </scstep>
  <scstep>
   <time name="dav">    6.02    6.03</time>
   <time name="total">    6.31    6.32</time>
   <energy>
    <i name="e_fr_energy">   -499.49610141 </i>
    <i name="e_wo_entrp">   -499.49256182 </i>
    <i name="e_0_energy">   -499.49492154 </i>
   </energy>
  </scstep>
  <scstep>
   <time name="dav">    6.00    6.01</time>
   <time name="total">    6.29    6.30</time>
   <energy>
    <i name="e_fr_energy">   -499.49609070 </i>
    <i name="e_wo_entrp">   -499.49252126 </i>
    <i name="e_0_energy">   -499.49490089 </i>
   </energy>
  </scstep>
  <scstep>
   <time name="dav">    6.00    6.01</time>
   <time name="total">    6.29    6.30</time>
   <energy>
    <i name="e_fr_energy">   -499.49608755 </i>
    <i name="e_wo_entrp">   -499.49250835 </i>
    <i name="e_0_energy">   -499.49489448 </i>
   </energy>
  </scstep>
  <scstep>
   <time name="dav">    6.08    6.09</time>
   <time name="total">    6.37    6.38</time>
   <energy>
    <i name="e_fr_energy">   -499.49608600 </i>
    <i name="e_wo_entrp">   -499.49250560 </i>
    <i name="e_0_energy">   -499.49489253 </i>
   </energy>
  </scstep>
  <scstep>
   <time name="dav">    5.99    6.00</time>
   <time name="total">    6.28    6.29</time>
   <energy>
    <i name="e_fr_energy">   -499.49608403 </i>
    <i name="e_wo_entrp">   -499.49250432 </i>
    <i name="e_0_energy">   -499.49489079 </i>
   </energy>
  </scstep>
  <scstep>
   <time name="dav">    5.99    6.00</time>
   <time name="total">    6.28    6.29</time>
   <energy>
    <i name="e_fr_energy">   -499.49608254 </i>
    <i name="e_wo_entrp">   -499.49250477 </i>
    <i name="e_0_energy">   -499.49488995 </i>
   </energy>
  </scstep>
  <scstep>
   <time name="dav">    5.61    5.61</time>
   <time name="total">    5.90    5.90</time>
   <energy>
    <i name="e_fr_energy">   -499.49608203 </i>
    <i name="e_wo_entrp">   -499.49250662 </i>
    <i name="e_0_energy">   -499.49489023 </i>
   </energy>
  </scstep>
  <scstep>
   <time name="dav">    5.17    5.18</time>
   <time name="total">    5.46    5.47</time>
   <energy>
    <i name="e_fr_energy">   -499.49608176 </i>
    <i name="e_wo_entrp">   -499.49250660 </i>
    <i name="e_0_energy">   -499.49489004 </i>
   </energy>
  </scstep>
  <scstep>
   <time name="dav">    3.19    3.19</time>
   <time name="total">    3.48    3.48</time>
   <energy>
    <i name="e_fr_energy">   -499.49608168 </i>
    <i name="e_wo_entrp">   -499.49250557 </i>
    <i name="e_0_energy">   -499.49488964 </i>
   </energy>
  </scstep>
  <scstep>
   <time name="dav">    3.10    3.10</time>
   <time name="total">    3.16    3.16</time>
   <energy>
    <i name="alphaZ">   1373.97392322 </i>
    <i name="ewald">  -8259.07257710 </i>
    <i name="hartreedc">   -557.31325980 </i>
    <i name="XCdc">  -2386.44493411 </i>
    <i name="pawpsdc">  19919.97680813 </i>
    <i name="pawaedc"> -17283.08749090 </i>
    <i name="eentropy">     -0.00357606 </i>
    <i name="bandstr">    382.65588699 </i>
    <i name="atom">   6309.81913796 </i>
    <i name="e_fr_energy">   -499.49608167 </i>
    <i name="e_wo_entrp">   -499.49250561 </i>
    <i name="e_0_energy">   -499.49488965 </i>
   </energy>
  </scstep>
  <structure>
   <crystal>
    <varray name="basis" >
     <v>       6.30976000       0.00000000       0.00000000 </v>
     <v>       0.00000000       9.46464000       0.00000000 </v>
     <v>       0.00000000       0.00000000      18.91832600 </v>
    </varray>
    <i name="volume">   1129.79499167 </i>
    <varray name="rec_basis" >
     <v>       0.15848463       0.00000000       0.00000000 </v>
     <v>       0.00000000       0.10565642       0.00000000 </v>
     <v>       0.00000000       0.00000000       0.05285880 </v>
    </varray>
   </crystal>
   <varray name="positions" >
    <v>       0.62500000       0.04166700       0.50000000 </v>
    <v>       0.12500000       0.04166700       0.65857600 </v>
    <v>       0.62500000       0.04166700       0.65857600 </v>
    <v>       0.12500000       0.04166700       0.81715300 </v>
    <v>       0.62500000       0.04166700       0.81715300 </v>
    <v>       0.12500000       0.37500000       0.50000000 </v>
    <v>       0.62500000       0.37500000       0.50000000 </v>
    <v>       0.12500000       0.37500000       0.65857600 </v>
    <v>       0.62500000       0.37500000       0.65857600 </v>
    <v>       0.12500000       0.37500000       0.81715300 </v>
    <v>       0.62500000       0.37500000       0.81715300 </v>
    <v>       0.12500000       0.70833300       0.50000000 </v>
    <v>       0.62500000       0.70833300       0.50000000 </v>
    <v>       0.12500000       0.70833300       0.65857600 </v>
    <v>       0.62500000       0.70833300       0.65857600 </v>
    <v>       0.12500000       0.70833300       0.81715300 </v>
    <v>       0.62500000       0.70833300       0.81715300 </v>
    <v>       0.37500000       0.20833300       0.57928800 </v>
    <v>       0.87500000       0.20833300       0.57928800 </v>
    <v>       0.37500000       0.20833300       0.73786500 </v>
    <v>       0.87500000       0.20833300       0.73786500 </v>
    <v>       0.37500000       0.20833300       0.89644100 </v>
    <v>       0.87500000       0.20833300       0.89644100 </v>
    <v>       0.37500000       0.54166700       0.57928800 </v>
    <v>       0.87500000       0.54166700       0.57928800 </v>
    <v>       0.37500000       0.54166700       0.73786500 </v>
    <v>       0.87500000       0.54166700       0.73786500 </v>
    <v>       0.37500000       0.54166700       0.89644100 </v>
    <v>       0.87500000       0.54166700       0.89644100 </v>
    <v>       0.37500000       0.87500000       0.57928800 </v>
    <v>       0.87500000       0.87500000       0.57928800 </v>
    <v>       0.37500000       0.87500000       0.73786500 </v>
    <v>       0.87500000       0.87500000       0.73786500 </v>
    <v>       0.37500000       0.87500000       0.89644100 </v>
    <v>       0.87500000       0.87500000       0.89644100 </v>
    <v>       0.12500000       0.62500000       0.35679700 </v>
    <v>       0.62500000       0.62500000       0.35679700 </v>
    <v>       0.12500000       0.62500000       0.11893200 </v>
    <v>       0.62500000       0.62500000       0.11893200 </v>
    <v>       0.62500000       0.12500000       0.35679700 </v>
    <v>       0.12500000       0.12500000       0.11893200 </v>
    <v>       0.62500000       0.12500000       0.11893200 </v>
    <v>       0.12500000       0.37500000       0.03964400 </v>
    <v>       0.62500000       0.37500000       0.03964400 </v>
    <v>       0.12500000       0.87500000       0.03964400 </v>
    <v>       0.62500000       0.87500000       0.03964400 </v>
    <v>       0.12500000       0.37500000       0.27750900 </v>
    <v>       0.62500000       0.37500000       0.27750900 </v>
    <v>       0.12500000       0.87500000       0.27750900 </v>
    <v>       0.62500000       0.87500000       0.27750900 </v>
    <v>       0.37500000       0.87500000       0.15857600 </v>
    <v>       0.87500000       0.87500000       0.15857600 </v>
    <v>       0.37499900       0.37500000       0.15857600 </v>
    <v>       0.87499900       0.37500000       0.15857600 </v>
    <v>       0.37500000       0.37500000       0.39644100 </v>
    <v>       0.87500000       0.37500000       0.39644100 </v>
    <v>       0.37500000       0.87500000       0.39644100 </v>
    <v>       0.87500000       0.87500000       0.39644100 </v>
    <v>       0.37500000       0.62500000       0.23786400 </v>
    <v>       0.87500000       0.62500000       0.23786400 </v>
    <v>       0.37500000       0.62500000       0.00000000 </v>
    <v>       0.87500000       0.62500000       0.00000000 </v>
    <v>       0.37500000       0.12500000       0.23786500 </v>
    <v>       0.87500000       0.12500000       0.23786500 </v>
    <v>       0.37500000       0.12500000       0.00000000 </v>
    <v>       0.87500000       0.12500000       0.00000000 </v>
    <v>       0.12500000       0.12500000       0.35679700 </v>
   </varray>
  </structure>
  <varray name="forces" >
   <v>      -0.00000000      -0.13856130      -1.02304529 </v>
   <v>      -0.00000000       0.03935842       0.46779266 </v>
   <v>      -0.00000000       0.15202840      -0.58826368 </v>
   <v>      -0.00000000      -0.17147724       0.11465652 </v>
   <v>      -0.00000000      -0.13672430       0.21981991 </v>
   <v>      -0.00000000       0.10651300       0.01070025 </v>
   <v>      -0.00000000      -0.17139628       0.31088177 </v>
   <v>      -0.00000000      -0.36492076      -0.38945380 </v>
   <v>      -0.00000000      -0.09536705      -0.08047560 </v>
   <v>      -0.00000000       0.01501577      -0.01111459 </v>
   <v>      -0.00000000      -0.13051268      -0.05945346 </v>
   <v>      -0.00000000      -0.52697665      -1.16385518 </v>
   <v>      -0.00000000       0.11356112      -1.27686669 </v>
   <v>      -0.00000000       0.26229012      -0.38896868 </v>
   <v>      -0.00000000       0.00746613      -0.20206348 </v>
   <v>      -0.00000000       0.12572385       0.20304284 </v>
   <v>      -0.00000000       0.22830851       0.16650905 </v>
   <v>      -0.02603882      -0.05004864      -0.32695043 </v>
   <v>       0.02603882      -0.05004864      -0.32695043 </v>
   <v>      -0.10641645       0.11495719       0.12607137 </v>
   <v>       0.10641645       0.11495719       0.12607137 </v>
   <v>       0.00923153       1.41510656       0.07943987 </v>
   <v>      -0.00923153       1.41510656       0.07943987 </v>
   <v>      -0.06388892      -0.17562396      -0.11680805 </v>
   <v>       0.06388892      -0.17562396      -0.11680805 </v>
   <v>       0.06190184      -0.06765951       0.25578830 </v>
   <v>      -0.06190184      -0.06765951       0.25578830 </v>
   <v>       0.00861441      -1.37215124       0.07543588 </v>
   <v>      -0.00861441      -1.37215124       0.07543588 </v>
   <v>      -0.10011182       0.09669690      -0.34941751 </v>
   <v>       0.10011182       0.09669690      -0.34941751 </v>
   <v>      -0.09578194      -0.02006924       0.10260987 </v>
   <v>       0.09578194      -0.02006924       0.10260987 </v>
   <v>      -0.00394418      -0.01042790       1.40911934 </v>
   <v>       0.00394418      -0.01042790       1.40911934 </v>
   <v>      -0.00000000       0.14764977       0.76903569 </v>
   <v>      -0.00000000       0.18564710       0.83332696 </v>
   <v>      -0.00000000       0.00397719       0.22819597 </v>
   <v>      -0.00000000       0.00730215       0.21329755 </v>
   <v>      -0.00000000      -0.04341634       0.49549811 </v>
   <v>      -0.00000000      -0.03143173       0.23938599 </v>
   <v>      -0.00000000      -0.00081301       0.18927478 </v>
   <v>      -0.00000000       0.00711434      -1.92131727 </v>
   <v>      -0.00000000      -0.00868855      -1.96220918 </v>
   <v>      -0.00000000       0.00293955      -0.72837769 </v>
   <v>      -0.00000000      -0.02054286      -0.75743236 </v>
   <v>      -0.00000000       0.14640931       0.05542455 </v>
   <v>      -0.00000000       0.11612029      -0.14824149 </v>
   <v>      -0.00000000      -0.06690657       0.07466191 </v>
   <v>      -0.00000000      -0.11760609      -0.30702098 </v>
   <v>       0.01573222       0.05163009      -0.54813445 </v>
   <v>      -0.01573222       0.05163009      -0.54813445 </v>
   <v>       0.01533855      -0.04972886      -0.54294114 </v>
   <v>      -0.01533855      -0.04972886      -0.54294114 </v>
   <v>       0.05662641       0.01941891      -0.41112546 </v>
   <v>      -0.05662641       0.01941891      -0.41112546 </v>
   <v>       0.22842732       0.06002151       0.39555366 </v>
   <v>      -0.22842732       0.06002151       0.39555366 </v>
   <v>      -0.08204889       0.06925742       0.75431772 </v>
   <v>       0.08204889       0.06925742       0.75431772 </v>
   <v>       0.00509286       1.20293509       0.56487019 </v>
   <v>      -0.00509286       1.20293509       0.56487019 </v>
   <v>       0.27099063       0.03203586       0.68008866 </v>
   <v>      -0.27099063       0.03203586       0.68008866 </v>
   <v>       0.01820779      -1.21387628       0.55983689 </v>
   <v>      -0.01820779      -1.21387628       0.55983689 </v>
   <v>      -0.00000000       0.15296860       1.00114545 </v>
  </varray>
  <varray name="stress" >
   <v>      -8.41314378       0.00000000       0.00000000 </v>
   <v>       0.00000000       3.82158127      -4.89029830 </v>
   <v>       0.00000000      -4.89029827      41.59945930 </v>
  </varray>
  <energy>
   <i name="e_fr_energy">   -499.49608167 </i>
   <i name="e_wo_entrp">   -499.49488965 </i>
   <i name="e_0_energy">     -0.00357606 </i>
  </energy>
  <time name="totalsc">  250.06  250.86</time>
 </calculation>
 <calculation>
  <scstep>
   <time name="dav">    4.44    4.44</time>
   <time name="total">    4.72    4.80</time>
   <energy>
    <i name="alphaZ">   1373.97392322 </i>
    <i name="ewald">  -8260.09403646 </i>
    <i name="hartreedc">   -556.58846075 </i>
    <i name="XCdc">  -2386.45888735 </i>
    <i name="pawpsdc">  19919.95310676 </i>
    <i name="pawaedc"> -17283.06388152 </i>
    <i name="eentropy">     -0.00356098 </i>
    <i name="bandstr">    382.92225041 </i>
    <i name="atom">   6309.81913796 </i>
    <i name="e_fr_energy">   -499.54040872 </i>
    <i name="e_wo_entrp">   -499.53684775 </i>
    <i name="e_0_energy">   -499.53922173 </i>
   </energy>
  </scstep>
  <scstep>
   <time name="dav">    6.26    6.28</time>
   <time name="total">    6.54    6.56</time>
   <energy>
    <i name="e_fr_energy">   -499.58310891 </i>
    <i name="e_wo_entrp">   -499.57935418 </i>
    <i name="e_0_energy">   -499.58185733 </i>
   </energy>
  </scstep>
  <scstep>
   <time name="dav">    7.07    7.08</time>
   <time name="total">    7.36    7.37</time>
   <energy>
    <i name="e_fr_energy">   -499.54808621 </i>
    <i name="e_wo_entrp">   -499.54532306 </i>
    <i name="e_0_energy">   -499.54716516 </i>
   </energy>
  </scstep>
  <scstep>
   <time name="dav">    6.25    6.26</time>
   <time name="total">    6.53    6.54</time>
   <energy>
    <i name="e_fr_energy">   -499.54011282 </i>
    <i name="e_wo_entrp">   -499.53657407 </i>
    <i name="e_0_energy">   -499.53893324 </i>
   </energy>
  </scstep>
  <scstep>
   <time name="dav">    6.12    6.13</time>
   <time name="total">    6.40    6.41</time>
   <energy>
    <i name="e_fr_energy">   -499.54030501 </i>
    <i name="e_wo_entrp">   -499.53675260 </i>
    <i name="e_0_energy">   -499.53912088 </i>
   </energy>
  </scstep>
  <scstep>
   <time name="dav">    7.03    7.04</time>
   <time name="total">    7.32    7.32</time>
   <energy>
    <i name="e_fr_energy">   -499.54053010 </i>
    <i name="e_wo_entrp">   -499.53706459 </i>
    <i name="e_0_energy">   -499.53937493 </i>
   </energy>
  </scstep>
  <scstep>
   <time name="dav">    6.51    6.51</time>
   <time name="total">    6.79    6.80</time>
   <energy>
    <i name="e_fr_energy">   -499.53996061 </i>
    <i name="e_wo_entrp">   -499.53638802 </i>
    <i name="e_0_energy">   -499.53876975 </i>
   </energy>
  </scstep>
  <scstep>
   <time name="dav">    6.12    6.13</time>
   <time name="total">    6.40    6.41</time>
   <energy>
    <i name="e_fr_energy">   -499.54017198 </i>
    <i name="e_wo_entrp">   -499.53675447 </i>
    <i name="e_0_energy">   -499.53903281 </i>
   </energy>
  </scstep>
  <scstep>
   <time name="dav">    5.94    5.96</time>
   <time name="total">    6.23    6.25</time>
   <energy>
    <i name="e_fr_energy">   -499.53988275 </i>
    <i name="e_wo_entrp">   -499.53632919 </i>
    <i name="e_0_energy">   -499.53869823 </i>
   </energy>
  </scstep>
  <scstep>
   <time name="dav">    5.92    5.93</time>
   <time name="total">    6.21    6.22</time>
   <energy>
    <i name="e_fr_energy">   -499.53979190 </i>
    <i name="e_wo_entrp">   -499.53624017 </i>
    <i name="e_0_energy">   -499.53860799 </i>
   </energy>
  </scstep>
  <scstep>
   <time name="dav">    5.91    5.92</time>
   <time name="total">    6.20    6.20</time>
   <energy>
    <i name="e_fr_energy">   -499.53979071 </i>
    <i name="e_wo_entrp">   -499.53624749 </i>
    <i name="e_0_energy">   -499.53860964 </i>
   </energy>
  </scstep>
  <scstep>
   <time name="dav">    5.88    5.89</time>
   <time name="total">    6.17    6.18</time>
   <energy>
    <i name="e_fr_energy">   -499.53978164 </i>
    <i name="e_wo_entrp">   -499.53623400 </i>
    <i name="e_0_energy">   -499.53859909 </i>
   </energy>
  </scstep>
  <scstep>
   <time name="dav">    6.02    6.03</time>
   <time name="total">    6.31    6.32</time>
   <energy>
    <i name="e_fr_energy">   -499.53978235 </i>
    <i name="e_wo_entrp">   -499.53624689 </i>
    <i name="e_0_energy">   -499.53860386 </i>
   </energy>
  </scstep>
  <scstep>
   <time name="dav">    6.05    6.06</time>
   <time name="total">    6.34    6.34</time>
   <energy>
    <i name="e_fr_energy">   -499.53978144 </i>
    <i name="e_wo_entrp">   -499.53624588 </i>
    <i name="e_0_energy">   -499.53860292 </i>
   </energy>
  </scstep>
  <scstep>
   <time name="dav">    5.88    5.89</time>
   <time name="total">    6.17    6.18</time>
   <energy>
    <i name="e_fr_energy">   -499.53978060 </i>
    <i name="e_wo_entrp">   -499.53624021 </i>
    <i name="e_0_energy">   -499.53860047 </i>
   </energy>
  </scstep>
  <scstep>
   <time name="dav">    5.90    5.92</time>
   <time name="total">    6.18    6.20</time>
   <energy>
    <i name="e_fr_energy">   -499.53978044 </i>
    <i name="e_wo_entrp">   -499.53624180 </i>
    <i name="e_0_energy">   -499.53860089 </i>
   </energy>
  </scstep>
  <scstep>
   <time name="dav">    5.82    5.83</time>
   <time name="total">    6.11    6.12</time>
   <energy>
    <i name="e_fr_energy">   -499.53978027 </i>
    <i name="e_wo_entrp">   -499.53624140 </i>
    <i name="e_0_energy">   -499.53860065 </i>
   </energy>
  </scstep>
  <scstep>
   <time name="dav">    3.44    3.45</time>
   <time name="total">    3.51    3.51</time>
   <energy>
    <i name="alphaZ">   1373.97392322 </i>
    <i name="ewald">  -8260.09403646 </i>
    <i name="hartreedc">   -556.52287752 </i>
    <i name="XCdc">  -2386.46373079 </i>
    <i name="pawpsdc">  19912.59257730 </i>
    <i name="pawaedc"> -17275.68801318 </i>
    <i name="eentropy">     -0.00353983 </i>
    <i name="bandstr">    382.84677905 </i>
    <i name="atom">   6309.81913796 </i>
    <i name="e_fr_energy">   -499.53978026 </i>
    <i name="e_wo_entrp">   -499.53624043 </i>
    <i name="e_0_energy">   -499.53860032 </i>
   </energy>
  </scstep>
  <structure>
   <crystal>
    <varray name="basis" >
     <v>       6.30976000       0.00000000       0.00000000 </v>
     <v>       0.00000000       9.46464000       0.00000000 </v>
     <v>       0.00000000       0.00000000      18.91832600 </v>
    </varray>
    <i name="volume">   1129.79499167 </i>
    <varray name="rec_basis" >
     <v>       0.15848463       0.00000000       0.00000000 </v>
     <v>       0.00000000       0.10565642       0.00000000 </v>
     <v>       0.00000000       0.00000000       0.05285880 </v>
    </varray>
   </crystal>
   <varray name="positions" >
    <v>       0.62500000       0.04166700       0.50000000 </v>
    <v>       0.12500000       0.04166700       0.65857600 </v>
    <v>       0.62500000       0.04166700       0.65857600 </v>
    <v>       0.12500000       0.04166700       0.81715300 </v>
    <v>       0.62500000       0.04166700       0.81715300 </v>
    <v>       0.12500000       0.37500000       0.50000000 </v>
    <v>       0.62500000       0.37500000       0.50000000 </v>
    <v>       0.12500000       0.37500000       0.65857600 </v>
    <v>       0.62500000       0.37500000       0.65857600 </v>
    <v>       0.12500000       0.37500000       0.81715300 </v>
    <v>       0.62500000       0.37500000       0.81715300 </v>
    <v>       0.12500000       0.70833300       0.50000000 </v>
    <v>       0.62500000       0.70833300       0.50000000 </v>
    <v>       0.12500000       0.70833300       0.65857600 </v>
    <v>       0.62500000       0.70833300       0.65857600 </v>
    <v>       0.12500000       0.70833300       0.81715300 </v>
    <v>       0.62500000       0.70833300       0.81715300 </v>
    <v>       0.37500000       0.20833300       0.57928800 </v>
    <v>       0.87500000       0.20833300       0.57928800 </v>
    <v>       0.37500000       0.20833300       0.73786500 </v>
    <v>       0.87500000       0.20833300       0.73786500 </v>
    <v>       0.37500000       0.20833300       0.89644100 </v>
    <v>       0.87500000       0.20833300       0.89644100 </v>
    <v>       0.37500000       0.54166700       0.57928800 </v>
    <v>       0.87500000       0.54166700       0.57928800 </v>
    <v>       0.37500000       0.54166700       0.73786500 </v>
    <v>       0.87500000       0.54166700       0.73786500 </v>
    <v>       0.37500000       0.54166700       0.89644100 </v>
    <v>       0.87500000       0.54166700       0.89644100 </v>
    <v>       0.37500000       0.87500000       0.57928800 </v>
    <v>       0.87500000       0.87500000       0.57928800 </v>
    <v>       0.37500000       0.87500000       0.73786500 </v>
    <v>       0.87500000       0.87500000       0.73786500 </v>
    <v>       0.37500000       0.87500000       0.89644100 </v>
    <v>       0.87500000       0.87500000       0.89644100 </v>
    <v>       0.12500000       0.62500000       0.35679700 </v>
    <v>       0.62500000       0.62500000       0.35679700 </v>
    <v>       0.12500000       0.62500000       0.11893200 </v>
    <v>       0.62500000       0.62500000       0.11893200 </v>
    <v>       0.62500000       0.12500000       0.35679700 </v>
    <v>       0.12500000       0.12500000       0.11893200 </v>
    <v>       0.62500000       0.12500000       0.11893200 </v>
    <v>       0.12500000       0.37500000       0.03964400 </v>
    <v>       0.62500000       0.37500000       0.03964400 </v>
    <v>       0.12500000       0.87500000       0.03964400 </v>
    <v>       0.62500000       0.87500000       0.03964400 </v>
    <v>       0.12500000       0.37500000       0.27750900 </v>
    <v>       0.62500000       0.37500000       0.27750900 </v>
    <v>       0.12500000       0.87500000       0.27750900 </v>
    <v>       0.62500000       0.87500000       0.27750900 </v>
    <v>       0.37500000       0.87500000       0.15857600 </v>
    <v>       0.87500000       0.87500000       0.15857600 </v>
    <v>       0.37499900       0.37500000       0.15857600 </v>
    <v>       0.87499900       0.37500000       0.15857600 </v>
    <v>       0.37500000       0.37500000       0.39644100 </v>
    <v>       0.87500000       0.37500000       0.39644100 </v>
    <v>       0.37500000       0.87500000       0.39644100 </v>
    <v>       0.87500000       0.87500000       0.39644100 </v>
    <v>       0.37500000       0.62500000       0.23786400 </v>
    <v>       0.87500000       0.62500000       0.23786400 </v>
    <v>       0.37500000       0.62500000       0.00000000 </v>
    <v>       0.87500000       0.62500000       0.00000000 </v>
    <v>       0.37500000       0.12500000       0.23786500 </v>
    <v>       0.87500000       0.12500000       0.23786500 </v>
    <v>       0.37500000       0.12500000       0.00000000 </v>
    <v>       0.87500000       0.12500000       0.00000000 </v>
    <v>       0.12500000       0.12577970       0.35934997 </v>
   </varray>
  </structure>
  <varray name="forces" >
   <v>      -0.00000000      -0.14082742      -1.02915493 </v>
   <v>      -0.00000000       0.03943804       0.46838143 </v>
   <v>      -0.00000000       0.15070525      -0.59028911 </v>
   <v>      -0.00000000      -0.17257593       0.11473187 </v>
   <v>      -0.00000000      -0.13641702       0.21996287 </v>
   <v>      -0.00000000       0.09706808       0.00390572 </v>
   <v>      -0.00000000      -0.15982138       0.31848295 </v>
   <v>      -0.00000000      -0.36607922      -0.38961789 </v>
   <v>      -0.00000000      -0.09633514      -0.08072949 </v>
   <v>      -0.00000000       0.01514837      -0.01137360 </v>
   <v>      -0.00000000      -0.13127976      -0.05965529 </v>
   <v>      -0.00000000      -0.52691939      -1.16336087 </v>
   <v>      -0.00000000       0.11546112      -1.27312209 </v>
   <v>      -0.00000000       0.26215865      -0.38839355 </v>
   <v>      -0.00000000       0.00882906      -0.20120876 </v>
   <v>      -0.00000000       0.12659484       0.20262658 </v>
   <v>      -0.00000000       0.22792926       0.16635712 </v>
   <v>      -0.03199342      -0.04839014      -0.33080991 </v>
   <v>       0.03199342      -0.04839014      -0.33080991 </v>
   <v>      -0.10643675       0.11566148       0.12545288 </v>
   <v>       0.10643675       0.11566148       0.12545288 </v>
   <v>       0.00927480       1.41483290       0.08004406 </v>
   <v>      -0.00927480       1.41483290       0.08004406 </v>
   <v>      -0.06129725      -0.17393042      -0.11637071 </v>
   <v>       0.06129725      -0.17393042      -0.11637071 </v>
   <v>       0.06202068      -0.06743827       0.25615356 </v>
   <v>      -0.06202068      -0.06743827       0.25615356 </v>
   <v>       0.00880167      -1.37319865       0.07588392 </v>
   <v>      -0.00880167      -1.37319865       0.07588392 </v>
   <v>      -0.10046473       0.09673682      -0.34818380 </v>
   <v>       0.10046473       0.09673682      -0.34818380 </v>
   <v>      -0.09506488      -0.01996146       0.10294960 </v>
   <v>       0.09506488      -0.01996146       0.10294960 </v>
   <v>      -0.00436275      -0.01017666       1.40927003 </v>
   <v>       0.00436275      -0.01017666       1.40927003 </v>
   <v>      -0.00000000       0.15047933       0.75775352 </v>
   <v>      -0.00000000       0.18645181       0.83421249 </v>
   <v>      -0.00000000       0.00420826       0.22889166 </v>
   <v>      -0.00000000       0.00822229       0.21293385 </v>
   <v>      -0.00000000      -0.04861770       0.50318771 </v>
   <v>      -0.00000000      -0.03247946       0.24568162 </v>
   <v>      -0.00000000      -0.00206695       0.19499668 </v>
   <v>      -0.00000000       0.00761648      -1.92114630 </v>
   <v>      -0.00000000      -0.00906802      -1.96326221 </v>
   <v>      -0.00000000       0.00238989      -0.72797990 </v>
   <v>      -0.00000000      -0.02150251      -0.75865051 </v>
   <v>      -0.00000000       0.10930913       0.07822817 </v>
   <v>      -0.00000000       0.11269032      -0.15027252 </v>
   <v>      -0.00000000      -0.01268939       0.11462248 </v>
   <v>      -0.00000000      -0.11150060      -0.30645516 </v>
   <v>       0.01071296       0.05526523      -0.54659281 </v>
   <v>      -0.01071296       0.05526523      -0.54659281 </v>
   <v>       0.01189919      -0.05272346      -0.54243709 </v>
   <v>      -0.01189919      -0.05272346      -0.54243709 </v>
   <v>       0.05869802       0.03443694      -0.40265196 </v>
   <v>      -0.05869802       0.03443694      -0.40265196 </v>
   <v>       0.23313396       0.04748512       0.39938739 </v>
   <v>      -0.23313396       0.04748512       0.39938739 </v>
   <v>      -0.08407545       0.06939343       0.75625131 </v>
   <v>       0.08407545       0.06939343       0.75625131 </v>
   <v>       0.00502843       1.20344971       0.56481580 </v>
   <v>      -0.00502843       1.20344971       0.56481580 </v>
   <v>       0.23413867       0.03470077       0.74932032 </v>
   <v>      -0.23413867       0.03470077       0.74932032 </v>
   <v>       0.01838347      -1.21301971       0.55836361 </v>
   <v>      -0.01838347      -1.21301971       0.55836361 </v>
   <v>      -0.00000000       0.11723246       0.76802306 </v>
  </varray>
  <varray name="stress" >
   <v>      -8.68782276       0.00000000       0.00000000 </v>
   <v>       0.00000000       3.65306121      -4.91821678 </v>
   <v>       0.00000000      -4.91821677      41.00840471 </v>
  </varray>
  <energy>
   <i name="e_fr_energy">   -499.53978026 </i>
   <i name="e_wo_entrp">   -499.53860032 </i>
   <i name="e_0_energy">     -0.00353983 </i>
  </energy>
  <time name="totalsc">  116.93  117.40</time>
 </calculation>
 <calculation>
  <scstep>
   <time name="dav">    4.33    4.34</time>
   <time name="total">    4.61    4.69</time>
   <energy>
    <i name="alphaZ">   1373.97392322 </i>
    <i name="ewald">  -8262.59975917 </i>
    <i name="hartreedc">   -554.74504409 </i>
    <i name="XCdc">  -2386.50445226 </i>
    <i name="pawpsdc">  19912.60858817 </i>
    <i name="pawaedc"> -17275.70406118 </i>
    <i name="eentropy">     -0.00346405 </i>
    <i name="bandstr">    383.54035810 </i>
    <i name="atom">   6309.81913796 </i>
    <i name="e_fr_energy">   -499.61477331 </i>
    <i name="e_wo_entrp">   -499.61130926 </i>
    <i name="e_0_energy">   -499.61361863 </i>
   </energy>
  </scstep>
  <scstep>
   <time name="dav">    6.29    6.30</time>
   <time name="total">    6.57    6.58</time>
   <energy>
    <i name="e_fr_energy">   -499.97736942 </i>
    <i name="e_wo_entrp">   -499.97529199 </i>
    <i name="e_0_energy">   -499.97667694 </i>
   </energy>
  </scstep>
  <scstep>
   <time name="dav">    7.12    7.12</time>
   <time name="total">    7.40    7.41</time>
   <energy>
    <i name="e_fr_energy">   -499.67206253 </i>
    <i name="e_wo_entrp">   -499.67015503 </i>
    <i name="e_0_energy">   -499.67142670 </i>
   </energy>
  </scstep>
  <scstep>
   <time name="dav">    6.25    6.26</time>
   <time name="total">    6.54    6.54</time>
   <energy>
    <i name="e_fr_energy">   -499.61339279 </i>
    <i name="e_wo_entrp">   -499.60995520 </i>
    <i name="e_0_energy">   -499.61224693 </i>
   </energy>
  </scstep>
  <scstep>
   <time name="dav">    6.21    6.23</time>
   <time name="total">    6.49    6.51</time>
   <energy>
    <i name="e_fr_energy">   -499.61782488 </i>
    <i name="e_wo_entrp">   -499.61415100 </i>
    <i name="e_0_energy">   -499.61660025 </i>
   </energy>
  </scstep>
  <scstep>
   <time name="dav">    7.05    7.06</time>
   <time name="total">    7.33    7.34</time>
   <energy>
    <i name="e_fr_energy">   -499.61572542 </i>
    <i name="e_wo_entrp">   -499.61237852 </i>
    <i name="e_0_energy">   -499.61460979 </i>
   </energy>
  </scstep>
  <scstep>
   <time name="dav">    6.31    6.32</time>
   <time name="total">    6.59    6.61</time>
   <energy>
    <i name="e_fr_energy">   -499.61226295 </i>
    <i name="e_wo_entrp">   -499.60866375 </i>
    <i name="e_0_energy">   -499.61106322 </i>
   </energy>
  </scstep>
  <scstep>
   <time name="dav">    6.13    6.14</time>
   <time name="total">    6.42    6.43</time>
   <energy>
    <i name="e_fr_energy">   -499.61367988 </i>
    <i name="e_wo_entrp">   -499.61061379 </i>
    <i name="e_0_energy">   -499.61265785 </i>
   </energy>
  </scstep>
  <scstep>
   <time name="dav">    5.95    5.96</time>
   <time name="total">    6.23    6.24</time>
   <energy>
    <i name="e_fr_energy">   -499.61149706 </i>
    <i name="e_wo_entrp">   -499.60797005 </i>
    <i name="e_0_energy">   -499.61032139 </i>
   </energy>
  </scstep>
  <scstep>
   <time name="dav">    5.95    5.96</time>
   <time name="total">    6.23    6.24</time>
   <energy>
    <i name="e_fr_energy">   -499.61094477 </i>
    <i name="e_wo_entrp">   -499.60741288 </i>
    <i name="e_0_energy">   -499.60976748 </i>
   </energy>
  </scstep>
  <scstep>
   <time name="dav">    5.91    5.92</time>
   <time name="total">    6.20    6.21</time>
   <energy>
    <i name="e_fr_energy">   -499.61095630 </i>
    <i name="e_wo_entrp">   -499.60743962 </i>
    <i name="e_0_energy">   -499.60978408 </i>
   </energy>
  </scstep>
  <scstep>
   <time name="dav">    5.89    5.90</time>
   <time name="total">    6.18    6.19</time>
   <energy>
    <i name="e_fr_energy">   -499.61087429 </i>
    <i name="e_wo_entrp">   -499.60735574 </i>
    <i name="e_0_energy">   -499.60970144 </i>
   </energy>
  </scstep>
  <scstep>
   <time name="dav">    5.96    5.97</time>
   <time name="total">    6.24    6.25</time>
   <energy>
    <i name="e_fr_energy">   -499.61087605 </i>
    <i name="e_wo_entrp">   -499.60738998 </i>
    <i name="e_0_energy">   -499.60971403 </i>
   </energy>
  </scstep>
  <scstep>
   <time name="dav">    5.99    5.99</time>
   <time name="total">    6.27    6.28</time>
   <energy>
    <i name="e_fr_energy">   -499.61087101 </i>
    <i name="e_wo_entrp">   -499.60738840 </i>
    <i name="e_0_energy">   -499.60971014 </i>
   </energy>
  </scstep>
  <scstep>
   <time name="dav">    5.88    5.89</time>
   <time name="total">    6.16    6.17</time>
   <energy>
    <i name="e_fr_energy">   -499.61086457 </i>
    <i name="e_wo_entrp">   -499.60736827 </i>
    <i name="e_0_energy">   -499.60969914 </i>
   </energy>
  </scstep>
  <scstep>
   <time name="dav">    5.90    5.91</time>
   <time name="total">    6.19    6.20</time>
   <energy>
    <i name="e_fr_energy">   -499.61086421 </i>
    <i name="e_wo_entrp">   -499.60737367 </i>
    <i name="e_0_energy">   -499.60970070 </i>
   </energy>
  </scstep>
  <scstep>
   <time name="dav">    5.91    5.92</time>
   <time name="total">    6.20    6.21</time>
   <energy>
    <i name="e_fr_energy">   -499.61086311 </i>
    <i name="e_wo_entrp">   -499.60737100 </i>
    <i name="e_0_energy">   -499.60969908 </i>
   </energy>
  </scstep>
  <scstep>
   <time name="dav">    6.01    6.02</time>
   <time name="total">    6.29    6.30</time>
   <energy>
    <i name="e_fr_energy">   -499.61086312 </i>
    <i name="e_wo_entrp">   -499.60736781 </i>
    <i name="e_0_energy">   -499.60969802 </i>
   </energy>
  </scstep>
  <scstep>
   <time name="dav">    5.86    5.88</time>
   <time name="total">    6.14    6.16</time>
   <energy>
    <i name="e_fr_energy">   -499.61086312 </i>
    <i name="e_wo_entrp">   -499.60737059 </i>
    <i name="e_0_energy">   -499.60969894 </i>
   </energy>
  </scstep>
  <scstep>
   <time name="dav">    5.55    5.56</time>
   <time name="total">    5.84    5.85</time>
   <energy>
    <i name="e_fr_energy">   -499.61086309 </i>
    <i name="e_wo_entrp">   -499.60736817 </i>
    <i name="e_0_energy">   -499.60969812 </i>
   </energy>
  </scstep>
  <scstep>
   <time name="dav">    4.27    4.27</time>
   <time name="total">    4.33    4.33</time>
   <energy>
    <i name="alphaZ">   1373.97392322 </i>
    <i name="ewald">  -8262.59975917 </i>
    <i name="hartreedc">   -554.63945881 </i>
    <i name="XCdc">  -2386.51747640 </i>
    <i name="pawpsdc">  19894.57124141 </i>
    <i name="pawaedc"> -17257.63007568 </i>
    <i name="eentropy">     -0.00349362 </i>
    <i name="bandstr">    383.41509799 </i>
    <i name="atom">   6309.81913796 </i>
    <i name="e_fr_energy">   -499.61086310 </i>
    <i name="e_wo_entrp">   -499.60736947 </i>
    <i name="e_0_energy">   -499.60969856 </i>
   </energy>
  </scstep>
  <structure>
   <crystal>
    <varray name="basis" >
     <v>       6.30976000       0.00000000       0.00000000 </v>
     <v>       0.00000000       9.46464000       0.00000000 </v>
     <v>       0.00000000       0.00000000      18.91832600 </v>
    </varray>
    <i name="volume">   1129.79499167 </i>
    <varray name="rec_basis" >
     <v>       0.15848463       0.00000000       0.00000000 </v>
     <v>       0.00000000       0.10565642       0.00000000 </v>
     <v>       0.00000000       0.00000000       0.05285880 </v>
    </varray>
   </crystal>
   <varray name="positions" >
    <v>       0.62500000       0.04166700       0.50000000 </v>
    <v>       0.12500000       0.04166700       0.65857600 </v>
    <v>       0.62500000       0.04166700       0.65857600 </v>
    <v>       0.12500000       0.04166700       0.81715300 </v>
    <v>       0.62500000       0.04166700       0.81715300 </v>
    <v>       0.12500000       0.37500000       0.50000000 </v>
    <v>       0.62500000       0.37500000       0.50000000 </v>
    <v>       0.12500000       0.37500000       0.65857600 </v>
    <v>       0.62500000       0.37500000       0.65857600 </v>
    <v>       0.12500000       0.37500000       0.81715300 </v>
    <v>       0.62500000       0.37500000       0.81715300 </v>
    <v>       0.12500000       0.70833300       0.50000000 </v>
    <v>       0.62500000       0.70833300       0.50000000 </v>
    <v>       0.12500000       0.70833300       0.65857600 </v>
    <v>       0.62500000       0.70833300       0.65857600 </v>
    <v>       0.12500000       0.70833300       0.81715300 </v>
    <v>       0.62500000       0.70833300       0.81715300 </v>
    <v>       0.37500000       0.20833300       0.57928800 </v>
    <v>       0.87500000       0.20833300       0.57928800 </v>
[...]
       <r>    -2.4761     6.4703     2.9412 </r>
       <r>    -2.4494     6.6884     3.1197 </r>
       <r>    -2.4227     4.3121     3.2349 </r>
       <r>    -2.3960     1.1254     3.2649 </r>
       <r>    -2.3693     0.2862     3.2725 </r>
       <r>    -2.3426     3.2005     3.3580 </r>
       <r>    -2.3159     6.3044     3.5263 </r>
       <r>    -2.2892     5.1936     3.6650 </r>
       <r>    -2.2625     1.7846     3.7126 </r>
       <r>    -2.2358    -0.0217     3.7120 </r>
       <r>    -2.2091     2.4728     3.7780 </r>
       <r>    -2.1824     9.8573     4.0412 </r>
       <r>    -2.1557    14.9111     4.4393 </r>
       <r>    -2.1290    10.9113     4.7306 </r>
       <r>    -2.1023     3.1829     4.8156 </r>
       <r>    -2.0756    -0.6473     4.7983 </r>
       <r>    -2.0489     0.3267     4.8070 </r>
       <r>    -2.0222     5.5156     4.9543 </r>
       <r>    -1.9955    12.0397     5.2757 </r>
       <r>    -1.9688    11.9594     5.5950 </r>
       <r>    -1.9421     4.7465     5.7217 </r>
       <r>    -1.9154     1.2063     5.7539 </r>
       <r>    -1.8887     6.9211     5.9387 </r>
       <r>    -1.8620    13.1298     6.2892 </r>
       <r>    -1.8353    10.2475     6.5628 </r>
       <r>    -1.8086     4.9352     6.6945 </r>
       <r>    -1.7819     3.9292     6.7994 </r>
       <r>    -1.7552     5.4402     6.9447 </r>
       <r>    -1.7285    10.8143     7.2334 </r>
       <r>    -1.7018    15.8744     7.6572 </r>
       <r>    -1.6751    13.9098     8.0286 </r>
       <r>    -1.6484     8.2590     8.2490 </r>
       <r>    -1.6217     3.7600     8.3494 </r>
       <r>    -1.5950     1.0055     8.3763 </r>
       <r>    -1.5684     0.9290     8.4011 </r>
       <r>    -1.5417     6.2731     8.5686 </r>
       <r>    -1.5150    12.1296     8.8924 </r>
       <r>    -1.4883     9.5725     9.1479 </r>
       <r>    -1.4616     4.0336     9.2556 </r>
       <r>    -1.4349     5.4560     9.4013 </r>
       <r>    -1.4082    10.8960     9.6922 </r>
       <r>    -1.3815    13.6653    10.0570 </r>
       <r>    -1.3548    12.9432    10.4026 </r>
       <r>    -1.3281     8.6495    10.6335 </r>
       <r>    -1.3014     3.5816    10.7291 </r>
       <r>    -1.2747     3.9098    10.8335 </r>
       <r>    -1.2480     9.9650    11.0995 </r>
       <r>    -1.2213    15.4207    11.5112 </r>
       <r>    -1.1946    15.0871    11.9140 </r>
       <r>    -1.1679    11.9592    12.2333 </r>
       <r>    -1.1412    13.7100    12.5993 </r>
       <r>    -1.1145    16.1244    13.0298 </r>
       <r>    -1.0878    13.0302    13.3776 </r>
       <r>    -1.0611     9.7893    13.6390 </r>
       <r>    -1.0344     9.0506    13.8806 </r>
       <r>    -1.0077    10.7355    14.1672 </r>
       <r>    -0.9810    13.3198    14.5228 </r>
       <r>    -0.9543    14.8676    14.9198 </r>
       <r>    -0.9276    16.7470    15.3669 </r>
       <r>    -0.9009    14.9110    15.7649 </r>
       <r>    -0.8742     8.0893    15.9809 </r>
       <r>    -0.8475     5.7736    16.1351 </r>
       <r>    -0.8208     8.8181    16.3705 </r>
       <r>    -0.7941     8.8092    16.6057 </r>
       <r>    -0.7674     6.3847    16.7761 </r>
       <r>    -0.7407     8.6232    17.0063 </r>
       <r>    -0.7140    15.7546    17.4269 </r>
       <r>    -0.6873    21.9036    18.0117 </r>
       <r>    -0.6606    20.8884    18.5694 </r>
       <r>    -0.6339    15.6604    18.9875 </r>
       <r>    -0.6072    15.7479    19.4079 </r>
       <r>    -0.5805    20.5111    19.9555 </r>
       <r>    -0.5539    21.2000    20.5215 </r>
       <r>    -0.5272    14.8265    20.9173 </r>
       <r>    -0.5005     7.5255    21.1182 </r>
       <r>    -0.4738     7.0947    21.3076 </r>
       <r>    -0.4471    14.9372    21.7064 </r>
       <r>    -0.4204    21.2546    22.2738 </r>
       <r>    -0.3937    20.0054    22.8079 </r>
       <r>    -0.3670    16.7812    23.2559 </r>
       <r>    -0.3403    12.5882    23.5920 </r>
       <r>    -0.3136     9.8204    23.8542 </r>
       <r>    -0.2869    14.8230    24.2499 </r>
       <r>    -0.2602    20.5969    24.7998 </r>
       <r>    -0.2335    17.6773    25.2718 </r>
       <r>    -0.2068    12.6495    25.6095 </r>
       <r>    -0.1801    14.3115    25.9915 </r>
       <r>    -0.1534    19.6863    26.5171 </r>
       <r>    -0.1267    23.3103    27.1394 </r>
       <r>    -0.1000    25.4693    27.8194 </r>
       <r>    -0.0733    26.3835    28.5238 </r>
       <r>    -0.0466    26.6346    29.2348 </r>
       <r>    -0.0199    27.4592    29.9679 </r>
       <r>     0.0068    26.4912    30.6752 </r>
       <r>     0.0335    28.5934    31.4385 </r>
       <r>     0.0602    33.7154    32.3387 </r>
       <r>     0.0869    30.5521    33.1543 </r>
       <r>     0.1136    19.9464    33.6868 </r>
       <r>     0.1403    14.9146    34.0850 </r>
       <r>     0.1670    21.5877    34.6614 </r>
       <r>     0.1937    32.9993    35.5423 </r>
       <r>     0.2204    34.1167    36.4532 </r>
       <r>     0.2471    25.6306    37.1374 </r>
       <r>     0.2738    23.1376    37.7552 </r>
       <r>     0.3005    26.5028    38.4627 </r>
       <r>     0.3272    30.3838    39.2739 </r>
       <r>     0.3539    37.7701    40.2822 </r>
       <r>     0.3806    49.6133    41.6068 </r>
       <r>     0.4073    60.0953    43.2112 </r>
       <r>     0.4340    62.8534    44.8892 </r>
       <r>     0.4606    61.3188    46.5262 </r>
       <r>     0.4873    61.0813    48.1570 </r>
       <r>     0.5140    60.4624    49.7711 </r>
       <r>     0.5407    58.3539    51.3290 </r>
       <r>     0.5674    57.5545    52.8656 </r>
       <r>     0.5941    55.5836    54.3495 </r>
       <r>     0.6208    51.8920    55.7349 </r>
       <r>     0.6475    55.5486    57.2179 </r>
       <r>     0.6742    63.1558    58.9040 </r>
       <r>     0.7009    63.6639    60.6037 </r>
       <r>     0.7276    62.0313    62.2597 </r>
       <r>     0.7543    64.0897    63.9708 </r>
       <r>     0.7810    65.6135    65.7225 </r>
       <r>     0.8077    64.7046    67.4499 </r>
       <r>     0.8344    65.9138    69.2096 </r>
       <r>     0.8611    71.9967    71.1318 </r>
       <r>     0.8878    79.2907    73.2486 </r>
       <r>     0.9145    79.8489    75.3804 </r>
       <r>     0.9412    75.2027    77.3881 </r>
       <r>     0.9679    75.5131    79.4041 </r>
       <r>     0.9946    84.1549    81.6508 </r>
       <r>     1.0213    96.0745    84.2157 </r>
       <r>     1.0480    99.8837    86.8824 </r>
       <r>     1.0747    94.7470    89.4119 </r>
       <r>     1.1014    87.5554    91.7494 </r>
       <r>     1.1281    79.8464    93.8811 </r>
       <r>     1.1548    75.9352    95.9083 </r>
       <r>     1.1815    76.9022    97.9614 </r>
       <r>     1.2082    79.6600   100.0881 </r>
       <r>     1.2349    85.5627   102.3724 </r>
       <r>     1.2616    90.0776   104.7773 </r>
       <r>     1.2883    89.9737   107.1793 </r>
       <r>     1.3150    90.5383   109.5965 </r>
       <r>     1.3417    87.2704   111.9264 </r>
       <r>     1.3684    77.9768   114.0081 </r>
       <r>     1.3951    76.8682   116.0603 </r>
       <r>     1.4218    84.3850   118.3132 </r>
       <r>     1.4485    83.2952   120.5369 </r>
       <r>     1.4751    74.7981   122.5339 </r>
       <r>     1.5018    71.0014   124.4294 </r>
       <r>     1.5285    71.8164   126.3467 </r>
       <r>     1.5552    72.7501   128.2890 </r>
       <r>     1.5819    68.4688   130.1169 </r>
       <r>     1.6086    64.1471   131.8295 </r>
       <r>     1.6353    69.3370   133.6806 </r>
       <r>     1.6620    72.8674   135.6259 </r>
       <r>     1.6887    67.0604   137.4163 </r>
       <r>     1.7154    59.6978   139.0101 </r>
       <r>     1.7421    58.9755   140.5845 </r>
       <r>     1.7688    69.3276   142.4354 </r>
       <r>     1.7955    78.1469   144.5217 </r>
       <r>     1.8222    76.5914   146.5665 </r>
       <r>     1.8489    73.7418   148.5352 </r>
       <r>     1.8756    71.1281   150.4342 </r>
       <r>     1.9023    66.5548   152.2110 </r>
       <r>     1.9290    63.7087   153.9119 </r>
       <r>     1.9557    63.0321   155.5946 </r>
       <r>     1.9824    67.0023   157.3834 </r>
       <r>     2.0091    73.6993   159.3510 </r>
       <r>     2.0358    76.8673   161.4032 </r>
       <r>     2.0625    80.1694   163.5435 </r>
       <r>     2.0892    83.7553   165.7795 </r>
       <r>     2.1159    85.4330   168.0604 </r>
       <r>     2.1426    88.5659   170.4248 </r>
       <r>     2.1693    89.4678   172.8134 </r>
       <r>     2.1960    86.0409   175.1105 </r>
       <r>     2.2227    87.7819   177.4540 </r>
       <r>     2.2494    94.3925   179.9740 </r>
       <r>     2.2761    96.8831   182.5606 </r>
       <r>     2.3028    99.0032   185.2037 </r>
       <r>     2.3295   109.9682   188.1395 </r>
       <r>     2.3562   123.7712   191.4439 </r>
       <r>     2.3829   127.5472   194.8491 </r>
       <r>     2.4096   126.1323   198.2165 </r>
       <r>     2.4363   129.2452   201.6670 </r>
       <r>     2.4630   130.7785   205.1584 </r>
       <r>     2.4896   127.7105   208.5680 </r>
       <r>     2.5163   118.9981   211.7449 </r>
       <r>     2.5430   107.5066   214.6151 </r>
       <r>     2.5697   104.8986   217.4156 </r>
       <r>     2.5964   110.2651   220.3594 </r>
       <r>     2.6231   111.6701   223.3407 </r>
       <r>     2.6498   109.8814   226.2742 </r>
       <r>     2.6765   110.2726   229.2182 </r>
       <r>     2.7032   111.5599   232.1966 </r>
       <r>     2.7299   116.6511   235.3108 </r>
       <r>     2.7566   124.4280   238.6327 </r>
       <r>     2.7833   125.5597   241.9848 </r>
       <r>     2.8100   121.9795   245.2414 </r>
       <r>     2.8367   121.4822   248.4846 </r>
       <r>     2.8634   121.5158   251.7288 </r>
       <r>     2.8901   116.3665   254.8355 </r>
       <r>     2.9168   111.3303   257.8077 </r>
       <r>     2.9435   117.2125   260.9370 </r>
       <r>     2.9702   128.2535   264.3610 </r>
       <r>     2.9969   128.5324   267.7925 </r>
       <r>     3.0236   121.0277   271.0236 </r>
       <r>     3.0503   116.4536   274.1326 </r>
       <r>     3.0770   114.8143   277.1978 </r>
       <r>     3.1037   113.6917   280.2331 </r>
       <r>     3.1304   111.3060   283.2047 </r>
       <r>     3.1571   107.0922   286.0638 </r>
       <r>     3.1838   108.9991   288.9738 </r>
       <r>     3.2105   119.9056   292.1749 </r>
       <r>     3.2372   127.4481   295.5775 </r>
       <r>     3.2639   125.7245   298.9340 </r>
       <r>     3.2906   120.1059   302.1405 </r>
       <r>     3.3173   116.1827   305.2423 </r>
       <r>     3.3440   119.0364   308.4202 </r>
       <r>     3.3707   121.2486   311.6572 </r>
       <r>     3.3974   115.8973   314.7514 </r>
       <r>     3.4241   107.4816   317.6209 </r>
       <r>     3.4508    91.3083   320.0586 </r>
       <r>     3.4775    71.4268   321.9655 </r>
       <r>     3.5041    64.0152   323.6745 </r>
       <r>     3.5308    65.4638   325.4222 </r>
       <r>     3.5575    67.2172   327.2167 </r>
       <r>     3.5842    68.4197   329.0434 </r>
       <r>     3.6109    62.2946   330.7065 </r>
       <r>     3.6376    46.6834   331.9528 </r>
       <r>     3.6643    28.9980   332.7270 </r>
       <r>     3.6910    18.1820   333.2124 </r>
       <r>     3.7177    14.4096   333.5971 </r>
       <r>     3.7444    10.3030   333.8721 </r>
       <r>     3.7711     4.6199   333.9955 </r>
       <r>     3.7978     0.7929   334.0166 </r>
       <r>     3.8245    -0.3376   334.0076 </r>
       <r>     3.8512    -0.2270   334.0016 </r>
       <r>     3.8779    -0.0526   334.0002 </r>
       <r>     3.9046    -0.0060   334.0000 </r>
       <r>     3.9313    -0.0004   334.0000 </r>
       <r>     3.9580    -0.0000   334.0000 </r>
       <r>     3.9847    -0.0000   334.0000 </r>
       <r>     4.0114    -0.0000   334.0000 </r>
       <r>     4.0381    -0.0000   334.0000 </r>
       <r>     4.0648    -0.0000   334.0000 </r>
       <r>     4.0915     0.0000   334.0000 </r>
       <r>     4.1182     0.0000   334.0000 </r>
       <r>     4.1449     0.0000   334.0000 </r>
       <r>     4.1716     0.0000   334.0000 </r>
       <r>     4.1983     0.0000   334.0000 </r>
       <r>     4.2250     0.0000   334.0000 </r>
       <r>     4.2517     0.0000   334.0000 </r>
      </set>
     </set>
    </array>
   </total>
  </dos>
 </calculation>
 <structure name="finalpos" >
  <crystal>
   <varray name="basis" >
    <v>       6.30976000       0.00000000       0.00000000 </v>
    <v>       0.00000000       9.46464000       0.00000000 </v>
    <v>       0.00000000       0.00000000      18.91832600 </v>
   </varray>
   <i name="volume">   1129.79499167 </i>
   <varray name="rec_basis" >
    <v>       0.15848463       0.00000000       0.00000000 </v>
    <v>       0.00000000       0.10565642       0.00000000 </v>
    <v>       0.00000000       0.00000000       0.05285880 </v>
   </varray>
  </crystal>
  <varray name="positions" >
   <v>       0.62500000       0.04166700       0.50000000 </v>
   <v>       0.12500000       0.04166700       0.65857600 </v>
   <v>       0.62500000       0.04166700       0.65857600 </v>
   <v>       0.12500000       0.04166700       0.81715300 </v>
   <v>       0.62500000       0.04166700       0.81715300 </v>
   <v>       0.12500000       0.37500000       0.50000000 </v>
   <v>       0.62500000       0.37500000       0.50000000 </v>
   <v>       0.12500000       0.37500000       0.65857600 </v>
   <v>       0.62500000       0.37500000       0.65857600 </v>
   <v>       0.12500000       0.37500000       0.81715300 </v>
   <v>       0.62500000       0.37500000       0.81715300 </v>
   <v>       0.12500000       0.70833300       0.50000000 </v>
   <v>       0.62500000       0.70833300       0.50000000 </v>
   <v>       0.12500000       0.70833300       0.65857600 </v>
   <v>       0.62500000       0.70833300       0.65857600 </v>
   <v>       0.12500000       0.70833300       0.81715300 </v>
   <v>       0.62500000       0.70833300       0.81715300 </v>
   <v>       0.37500000       0.20833300       0.57928800 </v>
   <v>       0.87500000       0.20833300       0.57928800 </v>
   <v>       0.37500000       0.20833300       0.73786500 </v>
   <v>       0.87500000       0.20833300       0.73786500 </v>
   <v>       0.37500000       0.20833300       0.89644100 </v>
   <v>       0.87500000       0.20833300       0.89644100 </v>
   <v>       0.37500000       0.54166700       0.57928800 </v>
   <v>       0.87500000       0.54166700       0.57928800 </v>
   <v>       0.37500000       0.54166700       0.73786500 </v>
   <v>       0.87500000       0.54166700       0.73786500 </v>
   <v>       0.37500000       0.54166700       0.89644100 </v>
   <v>       0.87500000       0.54166700       0.89644100 </v>
   <v>       0.37500000       0.87500000       0.57928800 </v>
   <v>       0.87500000       0.87500000       0.57928800 </v>
   <v>       0.37500000       0.87500000       0.73786500 </v>
   <v>       0.87500000       0.87500000       0.73786500 </v>
   <v>       0.37500000       0.87500000       0.89644100 </v>
   <v>       0.87500000       0.87500000       0.89644100 </v>
   <v>       0.12500000       0.62500000       0.35679700 </v>
   <v>       0.62500000       0.62500000       0.35679700 </v>
   <v>       0.12500000       0.62500000       0.11893200 </v>
   <v>       0.62500000       0.62500000       0.11893200 </v>
   <v>       0.62500000       0.12500000       0.35679700 </v>
   <v>       0.12500000       0.12500000       0.11893200 </v>
   <v>       0.62500000       0.12500000       0.11893200 </v>
   <v>       0.12500000       0.37500000       0.03964400 </v>
   <v>       0.62500000       0.37500000       0.03964400 </v>
   <v>       0.12500000       0.87500000       0.03964400 </v>
   <v>       0.62500000       0.87500000       0.03964400 </v>
   <v>       0.12500000       0.37500000       0.27750900 </v>
   <v>       0.62500000       0.37500000       0.27750900 </v>
   <v>       0.12500000       0.87500000       0.27750900 </v>
   <v>       0.62500000       0.87500000       0.27750900 </v>
   <v>       0.37500000       0.87500000       0.15857600 </v>
   <v>       0.87500000       0.87500000       0.15857600 </v>
   <v>       0.37499900       0.37500000       0.15857600 </v>
   <v>       0.87499900       0.37500000       0.15857600 </v>
   <v>       0.37500000       0.37500000       0.39644100 </v>
   <v>       0.87500000       0.37500000       0.39644100 </v>
   <v>       0.37500000       0.87500000       0.39644100 </v>
   <v>       0.87500000       0.87500000       0.39644100 </v>
   <v>       0.37500000       0.62500000       0.23786400 </v>
   <v>       0.87500000       0.62500000       0.23786400 </v>
   <v>       0.37500000       0.62500000       0.00000000 </v>
   <v>       0.87500000       0.62500000       0.00000000 </v>
   <v>       0.37500000       0.12500000       0.23786500 </v>
   <v>       0.87500000       0.12500000       0.23786500 </v>
   <v>       0.37500000       0.12500000       0.00000000 </v>
   <v>       0.87500000       0.12500000       0.00000000 </v>
   <v>       0.12500000       0.12833032       0.37148031 </v>
  </varray>
  <varray name="selective"  type="logical" >
   <v type="logical" >  F  F  F </v>
   <v type="logical" >  F  F  F </v>
   <v type="logical" >  F  F  F </v>
   <v type="logical" >  F  F  F </v>
   <v type="logical" >  F  F  F </v>
   <v type="logical" >  F  F  F </v>
   <v type="logical" >  F  F  F </v>
   <v type="logical" >  F  F  F </v>
   <v type="logical" >  F  F  F </v>
   <v type="logical" >  F  F  F </v>
   <v type="logical" >  F  F  F </v>
   <v type="logical" >  F  F  F </v>
   <v type="logical" >  F  F  F </v>
   <v type="logical" >  F  F  F </v>
   <v type="logical" >  F  F  F </v>
   <v type="logical" >  F  F  F </v>
   <v type="logical" >  F  F  F </v>
   <v type="logical" >  F  F  F </v>
   <v type="logical" >  F  F  F </v>
   <v type="logical" >  F  F  F </v>
   <v type="logical" >  F  F  F </v>
   <v type="logical" >  F  F  F </v>
   <v type="logical" >  F  F  F </v>
   <v type="logical" >  F  F  F </v>
   <v type="logical" >  F  F  F </v>
   <v type="logical" >  F  F  F </v>
   <v type="logical" >  F  F  F </v>
   <v type="logical" >  F  F  F </v>
   <v type="logical" >  F  F  F </v>
   <v type="logical" >  F  F  F </v>
   <v type="logical" >  F  F  F </v>
   <v type="logical" >  F  F  F </v>
   <v type="logical" >  F  F  F </v>
   <v type="logical" >  F  F  F </v>
   <v type="logical" >  F  F  F </v>
   <v type="logical" >  F  F  F </v>
   <v type="logical" >  F  F  F </v>
   <v type="logical" >  F  F  F </v>
   <v type="logical" >  F  F  F </v>
   <v type="logical" >  F  F  F </v>
   <v type="logical" >  F  F  F </v>
   <v type="logical" >  F  F  F </v>
   <v type="logical" >  F  F  F </v>
   <v type="logical" >  F  F  F </v>
   <v type="logical" >  F  F  F </v>
   <v type="logical" >  F  F  F </v>
   <v type="logical" >  F  F  F </v>
   <v type="logical" >  F  F  F </v>
   <v type="logical" >  F  F  F </v>
   <v type="logical" >  F  F  F </v>
   <v type="logical" >  F  F  F </v>
   <v type="logical" >  F  F  F </v>
   <v type="logical" >  F  F  F </v>
   <v type="logical" >  F  F  F </v>
   <v type="logical" >  F  F  F </v>
   <v type="logical" >  F  F  F </v>
   <v type="logical" >  F  F  F </v>
   <v type="logical" >  F  F  F </v>
   <v type="logical" >  F  F  F </v>
   <v type="logical" >  F  F  F </v>
   <v type="logical" >  F  F  F </v>
   <v type="logical" >  F  F  F </v>
   <v type="logical" >  F  F  F </v>
   <v type="logical" >  F  F  F </v>
   <v type="logical" >  F  F  F </v>
   <v type="logical" >  F  F  F </v>
   <v type="logical" >  T  T  T </v>
  </varray>
  <nose>
   <v>      -3.00000000       0.00000000       0.00010000       0.00010000 </v>
  </nose>
 </structure>
</modeling>
