Distance=2.550
 running on   16 total cores
 distrk:  each k-point on    8 cores,    2 groups
 distr:  one band on    8 cores,    1 groups
 using from now: INCAR     
 vasp.5.4.4.18Apr17-6-g9f103f2a35 (build Nov 27 2019 20:08:17) complex          
  
 POSCAR found type information on POSCAR  Ti
 POSCAR found :  1 types and      12 ions
 scaLAPACK will be used

 ----------------------------------------------------------------------------- 
|                                                                             |
|           W    W    AA    RRRRR   N    N  II  N    N   GGGG   !!!           |
|           W    W   A  A   R    R  NN   N  II  NN   N  G    G  !!!           |
|           W    W  A    A  R    R  N N  N  II  N N  N  G       !!!           |
|           W WW W  AAAAAA  RRRRR   N  N N  II  N  N N  G  GGG   !            |
|           WW  WW  A    A  R   R   N   NN  II  N   NN  G    G                |
|           W    W  A    A  R    R  N    N  II  N    N   GGGG   !!!           |
|                                                                             |
|      You have enabled k-point parallelism (KPAR>1).                         |
|      This developmental code was originally  written by Paul Kent at ORNL,  |
|      and carefully double checked in Vienna.                                |
|      GW as well as linear response parallelism added by Martijn Marsman     |
|      and Georg Kresse.                                                      |
|      Carefully verify results versus KPAR=1.                                |
|      Report problems to Paul Kent and Vienna.                               |
|                                                                             |
 ----------------------------------------------------------------------------- 

 LDA part: xc-table for Pade appr. of Perdew
 POSCAR found type information on POSCAR  Ti
 POSCAR found :  1 types and      12 ions
 POSCAR, INCAR and KPOINTS ok, starting setup
 FFT: planning ...
 WAVECAR not read
 entering main loop
       N       E                     dE             d eps       ncg     rms          rms(c)
DAV:   1     0.198838802519E+03    0.19884E+03   -0.12417E+04  1984   0.938E+02
DAV:   2    -0.687179841709E+02   -0.26756E+03   -0.25662E+03  2029   0.227E+02
DAV:   3    -0.105232468594E+03   -0.36514E+02   -0.34221E+02  3064   0.760E+01
DAV:   4    -0.107978788589E+03   -0.27463E+01   -0.26052E+01  3080   0.231E+01
DAV:   5    -0.108117482082E+03   -0.13869E+00   -0.13418E+00  3216   0.449E+00    0.427E+01
DAV:   6    -0.147924676811E+03   -0.39807E+02   -0.69195E+02  3859   0.803E+01    0.596E+01
DAV:   7    -0.100378552159E+03    0.47546E+02   -0.13225E+03  3711   0.155E+02    0.222E+01
DAV:   8    -0.926285814763E+02    0.77500E+01   -0.14693E+02  3043   0.663E+01    0.186E+01
DAV:   9    -0.911381484999E+02    0.14904E+01   -0.10510E+01  3360   0.124E+01    0.152E+01
DAV:  10    -0.905970391094E+02    0.54111E+00   -0.77291E-01  3313   0.410E+00    0.142E+01
DAV:  11    -0.900445574827E+02    0.55248E+00   -0.19202E-01  3264   0.225E+00    0.130E+01
DAV:  12    -0.870428000277E+02    0.30018E+01   -0.88750E+00  3137   0.166E+01    0.340E+00
DAV:  13    -0.871234068384E+02   -0.80607E-01   -0.50356E-01  3049   0.367E+00    0.359E+00
DAV:  14    -0.868636025486E+02    0.25980E+00   -0.13138E+00  3192   0.602E+00    0.395E-01
DAV:  15    -0.868671012634E+02   -0.34987E-02   -0.92321E-02  3033   0.156E+00    0.413E-01
DAV:  16    -0.868711202281E+02   -0.40190E-02   -0.28670E-02  3448   0.673E-01    0.613E-01
DAV:  17    -0.868673644059E+02    0.37558E-02   -0.54728E-02  3225   0.112E+00    0.183E-01
DAV:  18    -0.868670121250E+02    0.35228E-03   -0.27791E-03  2992   0.251E-01    0.121E-01
DAV:  19    -0.868674443061E+02   -0.43218E-03   -0.28024E-03  3256   0.212E-01    0.726E-02
DAV:  20    -0.868676444126E+02   -0.20011E-03   -0.79349E-04  3248   0.117E-01    0.394E-02
DAV:  21    -0.868683935534E+02   -0.74914E-03   -0.51636E-04  3136   0.894E-02    0.640E-02
DAV:  22    -0.868685592127E+02   -0.16566E-03   -0.23515E-04  3248   0.733E-02    0.301E-02
DAV:  23    -0.868687294480E+02   -0.17024E-03   -0.33260E-04  3224   0.918E-02    0.261E-02
DAV:  24    -0.868688049497E+02   -0.75502E-04   -0.23287E-05  2264   0.207E-02    0.179E-02
DAV:  25    -0.868688122352E+02   -0.72856E-05   -0.28100E-05  2576   0.218E-02    0.402E-03
DAV:  26    -0.868688166651E+02   -0.44298E-05   -0.36340E-06  1712   0.118E-02
   1 F= -.86868817E+02 E0= -.86869296E+02  d E =0.143703E-02
 running on   16 total cores
 distrk:  each k-point on    8 cores,    2 groups
 distr:  one band on    8 cores,    1 groups
 using from now: INCAR     
 vasp.5.4.4.18Apr17-6-g9f103f2a35 (build Nov 27 2019 20:08:17) complex          
  
 POSCAR found type information on POSCAR  Ti
 POSCAR found :  1 types and      12 ions
 scaLAPACK will be used

 ----------------------------------------------------------------------------- 
|                                                                             |
|           W    W    AA    RRRRR   N    N  II  N    N   GGGG   !!!           |
|           W    W   A  A   R    R  NN   N  II  NN   N  G    G  !!!           |
|           W    W  A    A  R    R  N N  N  II  N N  N  G       !!!           |
|           W WW W  AAAAAA  RRRRR   N  N N  II  N  N N  G  GGG   !            |
|           WW  WW  A    A  R   R   N   NN  II  N   NN  G    G                |
|           W    W  A    A  R    R  N    N  II  N    N   GGGG   !!!           |
|                                                                             |
|      You have enabled k-point parallelism (KPAR>1).                         |
|      This developmental code was originally  written by Paul Kent at ORNL,  |
|      and carefully double checked in Vienna.                                |
|      GW as well as linear response parallelism added by Martijn Marsman     |
|      and Georg Kresse.                                                      |
|      Carefully verify results versus KPAR=1.                                |
|      Report problems to Paul Kent and Vienna.                               |
|                                                                             |
 ----------------------------------------------------------------------------- 

 LDA part: xc-table for Pade appr. of Perdew
 POSCAR found type information on POSCAR  Ti
 POSCAR found :  1 types and      12 ions
 POSCAR, INCAR and KPOINTS ok, starting setup
 FFT: planning ...
 WAVECAR not read
 WARNING: random wavefunctions but no delay for mixing, default for NELMDL
 entering main loop
       N       E                     dE             d eps       ncg     rms          rms(c)
DAV:   1     0.185167071157E+03    0.18517E+03   -0.12323E+04  1984   0.939E+02
DAV:   2    -0.715311429637E+02   -0.25670E+03   -0.24641E+03  1984   0.224E+02
DAV:   3    -0.108286438603E+03   -0.36755E+02   -0.33921E+02  3040   0.736E+01
DAV:   4    -0.110618345548E+03   -0.23319E+01   -0.21563E+01  2963   0.227E+01
DAV:   5    -0.110714313527E+03   -0.95968E-01   -0.93760E-01  2960   0.414E+00    0.386E+01
DAV:   6    -0.161513869881E+03   -0.50800E+02   -0.78326E+02  3898   0.787E+01    0.622E+01
DAV:   7    -0.953766879151E+02    0.66137E+02   -0.12460E+03  3827   0.137E+02    0.208E+01
DAV:   8    -0.929534045740E+02    0.24233E+01   -0.15369E+02  3091   0.648E+01    0.177E+01
DAV:   9    -0.905283784212E+02    0.24250E+01   -0.20191E+01  3333   0.201E+01    0.136E+01
DAV:  10    -0.897652984296E+02    0.76308E+00   -0.21407E+00  3171   0.542E+00    0.122E+01
DAV:  11    -0.875906842652E+02    0.21746E+01   -0.28579E+00  2821   0.972E+00    0.761E+00
DAV:  12    -0.862868853619E+02    0.13038E+01   -0.60388E+00  3256   0.111E+01    0.193E+00
DAV:  13    -0.863264772931E+02   -0.39592E-01   -0.31975E-01  3046   0.258E+00    0.193E+00
DAV:  14    -0.863161476344E+02    0.10330E-01   -0.11952E+00  3058   0.579E+00    0.201E+00
DAV:  15    -0.862718443914E+02    0.44303E-01   -0.46066E-01  2779   0.339E+00    0.690E-01
DAV:  16    -0.862642234768E+02    0.76209E-02   -0.37694E-02  2954   0.958E-01    0.184E-01
DAV:  17    -0.862728484478E+02   -0.86250E-02   -0.68278E-02  3314   0.106E+00    0.744E-01
DAV:  18    -0.862657464381E+02    0.71020E-02   -0.23975E-02  3174   0.667E-01    0.284E-01
DAV:  19    -0.862663264753E+02   -0.58004E-03   -0.20664E-02  3313   0.575E-01    0.234E-01
DAV:  20    -0.862657359911E+02    0.59048E-03   -0.36207E-03  2751   0.331E-01    0.644E-02
DAV:  21    -0.862663982849E+02   -0.66229E-03   -0.60767E-04  2720   0.145E-01    0.527E-02
DAV:  22    -0.862670969503E+02   -0.69867E-03   -0.59105E-04  2976   0.113E-01    0.289E-02
DAV:  23    -0.862672219104E+02   -0.12496E-03   -0.90252E-05  2701   0.516E-02    0.108E-02
DAV:  24    -0.862672841772E+02   -0.62267E-04   -0.15028E-05  2002   0.174E-02    0.565E-03
DAV:  25    -0.862672881986E+02   -0.40214E-05   -0.27838E-06  1520   0.988E-03
   1 F= -.86267288E+02 E0= -.86268436E+02  d E =0.344447E-02
 running on   16 total cores
 distrk:  each k-point on    8 cores,    2 groups
 distr:  one band on    8 cores,    1 groups
 using from now: INCAR     
 vasp.5.4.4.18Apr17-6-g9f103f2a35 (build Nov 27 2019 20:08:17) complex          
  
 POSCAR found type information on POSCAR  Ti
 POSCAR found :  1 types and      24 ions
 scaLAPACK will be used

 ----------------------------------------------------------------------------- 
|                                                                             |
|           W    W    AA    RRRRR   N    N  II  N    N   GGGG   !!!           |
|           W    W   A  A   R    R  NN   N  II  NN   N  G    G  !!!           |
|           W    W  A    A  R    R  N N  N  II  N N  N  G       !!!           |
|           W WW W  AAAAAA  RRRRR   N  N N  II  N  N N  G  GGG   !            |
|           WW  WW  A    A  R   R   N   NN  II  N   NN  G    G                |
|           W    W  A    A  R    R  N    N  II  N    N   GGGG   !!!           |
|                                                                             |
|      You have enabled k-point parallelism (KPAR>1).                         |
|      This developmental code was originally  written by Paul Kent at ORNL,  |
|      and carefully double checked in Vienna.                                |
|      GW as well as linear response parallelism added by Martijn Marsman     |
|      and Georg Kresse.                                                      |
|      Carefully verify results versus KPAR=1.                                |
|      Report problems to Paul Kent and Vienna.                               |
|                                                                             |
 ----------------------------------------------------------------------------- 

 LDA part: xc-table for Pade appr. of Perdew
 POSCAR found type information on POSCAR  Ti
 POSCAR found :  1 types and      24 ions
 POSCAR, INCAR and KPOINTS ok, starting setup
 FFT: planning ...
 WAVECAR not read
 WARNING: random wavefunctions but no delay for mixing, default for NELMDL
 entering main loop
       N       E                     dE             d eps       ncg     rms          rms(c)
DAV:   1     0.333008742100E+03    0.33301E+03   -0.24768E+04  3904   0.105E+03
DAV:   2    -0.135733957012E+03   -0.46874E+03   -0.45440E+03  3904   0.247E+02
DAV:   3    -0.204293906292E+03   -0.68560E+02   -0.64179E+02  6088   0.832E+01
DAV:   4    -0.209565322741E+03   -0.52714E+01   -0.49462E+01  5992   0.237E+01
DAV:   5    -0.209829077065E+03   -0.26375E+00   -0.25059E+00  5952   0.386E+00    0.564E+01
DAV:   6    -0.260216352313E+03   -0.50387E+02   -0.87607E+02  7495   0.759E+01    0.514E+01
DAV:   7    -0.347694529238E+03   -0.87478E+02   -0.30211E+03  7728   0.119E+02    0.630E+01
DAV:   8    -0.199346919645E+03    0.14835E+03   -0.20659E+03  7371   0.964E+01    0.413E+01
DAV:   9    -0.178450421119E+03    0.20896E+02   -0.50450E+02  6235   0.990E+01    0.189E+01
DAV:  10    -0.180193709629E+03   -0.17433E+01   -0.56762E+01  6224   0.218E+01    0.165E+01
DAV:  11    -0.180844716617E+03   -0.65101E+00   -0.34863E+00  6152   0.472E+00    0.176E+01
DAV:  12    -0.179684266156E+03    0.11605E+01   -0.17578E+00  6184   0.511E+00    0.147E+01
DAV:  13    -0.178869550018E+03    0.81472E+00   -0.58469E-01  5904   0.326E+00    0.127E+01
DAV:  14    -0.177616791108E+03    0.12528E+01   -0.15640E+00  4984   0.588E+00    0.853E+00
DAV:  15    -0.176977152440E+03    0.63964E+00   -0.27669E+00  5619   0.729E+00    0.494E+00
DAV:  16    -0.176903274688E+03    0.73878E-01   -0.30793E-01  5944   0.227E+00    0.406E+00
DAV:  17    -0.176760984036E+03    0.14229E+00   -0.31382E-01  6176   0.216E+00    0.258E+00
DAV:  18    -0.176713729149E+03    0.47255E-01   -0.21328E-01  5992   0.188E+00    0.189E+00
DAV:  19    -0.176699619425E+03    0.14110E-01   -0.22884E-02  5968   0.615E-01    0.149E+00
DAV:  20    -0.176681484228E+03    0.18135E-01   -0.15096E-02  6696   0.342E-01    0.938E-01
DAV:  21    -0.176676724519E+03    0.47597E-02   -0.63255E-03  5752   0.310E-01    0.649E-01
DAV:  22    -0.176672302246E+03    0.44223E-02   -0.70782E-03  6920   0.245E-01    0.248E-01
DAV:  23    -0.176672184691E+03    0.11756E-03   -0.89665E-04  4872   0.146E-01    0.166E-01
DAV:  24    -0.176671926686E+03    0.25800E-03   -0.36452E-04  7104   0.534E-02    0.934E-02
DAV:  25    -0.176671859254E+03    0.67432E-04   -0.12488E-04  5640   0.398E-02    0.322E-02
DAV:  26    -0.176671850040E+03    0.92138E-05   -0.35248E-05  5000   0.195E-02    0.121E-02
DAV:  27    -0.176671849063E+03    0.97789E-06   -0.34364E-06  3027   0.750E-03
   1 F= -.17667185E+03 E0= -.17667296E+03  d E =0.331839E-02
Distance=2.600
 running on   16 total cores
 distrk:  each k-point on    8 cores,    2 groups
 distr:  one band on    8 cores,    1 groups
 using from now: INCAR     
 vasp.5.4.4.18Apr17-6-g9f103f2a35 (build Nov 27 2019 20:08:17) complex          
  
 POSCAR found type information on POSCAR  Ti
 POSCAR found :  1 types and      12 ions
 scaLAPACK will be used

 ----------------------------------------------------------------------------- 
|                                                                             |
|           W    W    AA    RRRRR   N    N  II  N    N   GGGG   !!!           |
|           W    W   A  A   R    R  NN   N  II  NN   N  G    G  !!!           |
|           W    W  A    A  R    R  N N  N  II  N N  N  G       !!!           |
|           W WW W  AAAAAA  RRRRR   N  N N  II  N  N N  G  GGG   !            |
|           WW  WW  A    A  R   R   N   NN  II  N   NN  G    G                |
|           W    W  A    A  R    R  N    N  II  N    N   GGGG   !!!           |
|                                                                             |
|      You have enabled k-point parallelism (KPAR>1).                         |
|      This developmental code was originally  written by Paul Kent at ORNL,  |
|      and carefully double checked in Vienna.                                |
|      GW as well as linear response parallelism added by Martijn Marsman     |
|      and Georg Kresse.                                                      |
|      Carefully verify results versus KPAR=1.                                |
|      Report problems to Paul Kent and Vienna.                               |
|                                                                             |
 ----------------------------------------------------------------------------- 

 LDA part: xc-table for Pade appr. of Perdew
 POSCAR found type information on POSCAR  Ti
 POSCAR found :  1 types and      12 ions
 POSCAR, INCAR and KPOINTS ok, starting setup
 FFT: planning ...
 WAVECAR not read
 entering main loop
       N       E                     dE             d eps       ncg     rms          rms(c)
DAV:   1     0.200754772260E+03    0.20075E+03   -0.12510E+04  1984   0.942E+02
DAV:   2    -0.684198822664E+02   -0.26917E+03   -0.25816E+03  2014   0.226E+02
DAV:   3    -0.105278684158E+03   -0.36859E+02   -0.34585E+02  3042   0.760E+01
DAV:   4    -0.107978168545E+03   -0.26995E+01   -0.25595E+01  3080   0.233E+01
DAV:   5    -0.108118447630E+03   -0.14028E+00   -0.13589E+00  3216   0.458E+00    0.427E+01
DAV:   6    -0.147807663531E+03   -0.39689E+02   -0.68935E+02  3862   0.802E+01    0.596E+01
DAV:   7    -0.100438523677E+03    0.47369E+02   -0.13324E+03  3741   0.155E+02    0.223E+01
DAV:   8    -0.927298978483E+02    0.77086E+01   -0.14739E+02  3113   0.668E+01    0.187E+01
DAV:   9    -0.913897976779E+02    0.13401E+01   -0.10291E+01  3336   0.128E+01    0.158E+01
DAV:  10    -0.907599961424E+02    0.62980E+00   -0.97645E-01  3306   0.486E+00    0.146E+01
DAV:  11    -0.897469608268E+02    0.10130E+01   -0.46884E-01  3048   0.380E+00    0.124E+01
DAV:  12    -0.870136275518E+02    0.27333E+01   -0.86699E+00  3178   0.160E+01    0.306E+00
DAV:  13    -0.872085818145E+02   -0.19495E+00   -0.96200E-01  3093   0.501E+00    0.413E+00
DAV:  14    -0.868577746075E+02    0.35081E+00   -0.20781E+00  3200   0.715E+00    0.420E-01
DAV:  15    -0.868661040646E+02   -0.83295E-02   -0.92301E-02  3193   0.127E+00    0.282E-01
DAV:  16    -0.868706466347E+02   -0.45426E-02   -0.47308E-02  3296   0.956E-01    0.496E-01
DAV:  17    -0.868680443947E+02    0.26022E-02   -0.44567E-02  3049   0.113E+00    0.158E-01
DAV:  18    -0.868678277015E+02    0.21669E-03   -0.19252E-03  2952   0.200E-01    0.126E-01
DAV:  19    -0.868681233939E+02   -0.29569E-03   -0.57937E-04  3008   0.915E-02    0.793E-02
DAV:  20    -0.868686674429E+02   -0.54405E-03   -0.26420E-04  2952   0.576E-02    0.877E-02
DAV:  21    -0.868691219943E+02   -0.45455E-03   -0.84129E-04  2928   0.157E-01    0.126E-02
DAV:  22    -0.868693692092E+02   -0.24721E-03   -0.23687E-04  3368   0.696E-02    0.399E-02
DAV:  23    -0.868694565859E+02   -0.87377E-04   -0.85004E-05  2912   0.400E-02    0.176E-02
DAV:  24    -0.868694761109E+02   -0.19525E-04   -0.25932E-05  2432   0.326E-02    0.384E-03
DAV:  25    -0.868694829328E+02   -0.68219E-05   -0.73527E-07  1744   0.792E-03    0.146E-03
DAV:  26    -0.868694856583E+02   -0.27254E-05    0.16183E-06  1712   0.438E-03
   1 F= -.86869486E+02 E0= -.86869963E+02  d E =0.143179E-02
 running on   16 total cores
 distrk:  each k-point on    8 cores,    2 groups
 distr:  one band on    8 cores,    1 groups
 using from now: INCAR     
 vasp.5.4.4.18Apr17-6-g9f103f2a35 (build Nov 27 2019 20:08:17) complex          
  
 POSCAR found type information on POSCAR  Ti
 POSCAR found :  1 types and      12 ions
 scaLAPACK will be used

 ----------------------------------------------------------------------------- 
|                                                                             |
|           W    W    AA    RRRRR   N    N  II  N    N   GGGG   !!!           |
|           W    W   A  A   R    R  NN   N  II  NN   N  G    G  !!!           |
|           W    W  A    A  R    R  N N  N  II  N N  N  G       !!!           |
|           W WW W  AAAAAA  RRRRR   N  N N  II  N  N N  G  GGG   !            |
|           WW  WW  A    A  R   R   N   NN  II  N   NN  G    G                |
|           W    W  A    A  R    R  N    N  II  N    N   GGGG   !!!           |
|                                                                             |
|      You have enabled k-point parallelism (KPAR>1).                         |
|      This developmental code was originally  written by Paul Kent at ORNL,  |
|      and carefully double checked in Vienna.                                |
|      GW as well as linear response parallelism added by Martijn Marsman     |
|      and Georg Kresse.                                                      |
|      Carefully verify results versus KPAR=1.                                |
|      Report problems to Paul Kent and Vienna.                               |
|                                                                             |
 ----------------------------------------------------------------------------- 

 LDA part: xc-table for Pade appr. of Perdew
 POSCAR found type information on POSCAR  Ti
 POSCAR found :  1 types and      12 ions
 POSCAR, INCAR and KPOINTS ok, starting setup
 FFT: planning ...
 WAVECAR not read
 WARNING: random wavefunctions but no delay for mixing, default for NELMDL
 entering main loop
       N       E                     dE             d eps       ncg     rms          rms(c)
DAV:   1     0.187465833456E+03    0.18747E+03   -0.12387E+04  1984   0.942E+02
DAV:   2    -0.717050214202E+02   -0.25917E+03   -0.24859E+03  2006   0.224E+02
DAV:   3    -0.108365305304E+03   -0.36660E+02   -0.33766E+02  3008   0.738E+01
DAV:   4    -0.110618161203E+03   -0.22529E+01   -0.21103E+01  2936   0.229E+01
DAV:   5    -0.110714511558E+03   -0.96350E-01   -0.94917E-01  2978   0.427E+00    0.386E+01
DAV:   6    -0.161410143723E+03   -0.50696E+02   -0.78033E+02  3905   0.786E+01    0.625E+01
DAV:   7    -0.954334110394E+02    0.65977E+02   -0.12469E+03  3814   0.137E+02    0.208E+01
DAV:   8    -0.928909218819E+02    0.25425E+01   -0.15350E+02  3061   0.645E+01    0.177E+01
DAV:   9    -0.905343163178E+02    0.23566E+01   -0.19743E+01  3385   0.198E+01    0.137E+01
DAV:  10    -0.897621893441E+02    0.77213E+00   -0.22438E+00  3186   0.554E+00    0.122E+01
DAV:  11    -0.876171410878E+02    0.21450E+01   -0.27330E+00  2886   0.949E+00    0.772E+00
DAV:  12    -0.862893512596E+02    0.13278E+01   -0.61347E+00  3259   0.112E+01    0.189E+00
DAV:  13    -0.863201422691E+02   -0.30791E-01   -0.29381E-01  3039   0.247E+00    0.184E+00
DAV:  14    -0.863197784455E+02    0.36382E-03   -0.12342E+00  3052   0.583E+00    0.207E+00
DAV:  15    -0.862727782267E+02    0.47000E-01   -0.51981E-01  2834   0.347E+00    0.711E-01
DAV:  16    -0.862649912834E+02    0.77869E-02   -0.31242E-02  2873   0.898E-01    0.248E-01
DAV:  17    -0.862757057982E+02   -0.10715E-01   -0.10792E-01  3234   0.133E+00    0.828E-01
DAV:  18    -0.862669344668E+02    0.87713E-02   -0.24708E-02  3134   0.701E-01    0.363E-01
DAV:  19    -0.862662316814E+02    0.70279E-03   -0.18834E-02  3368   0.536E-01    0.185E-01
DAV:  20    -0.862659542045E+02    0.27748E-03   -0.32726E-03  2707   0.335E-01    0.338E-02
DAV:  21    -0.862666719403E+02   -0.71774E-03   -0.46239E-04  3042   0.946E-02    0.464E-02
DAV:  22    -0.862672696494E+02   -0.59771E-03   -0.51651E-04  3058   0.100E-01    0.257E-02
DAV:  23    -0.862673562438E+02   -0.86594E-04   -0.58820E-05  2758   0.411E-02    0.137E-02
DAV:  24    -0.862674738273E+02   -0.11758E-03   -0.39984E-05  2452   0.277E-02    0.767E-03
DAV:  25    -0.862674862393E+02   -0.12412E-04   -0.73434E-06  1623   0.177E-02    0.579E-03
DAV:  26    -0.862674914551E+02   -0.52158E-05   -0.38528E-06  1471   0.125E-02    0.212E-03
DAV:  27    -0.862674922316E+02   -0.77648E-06   -0.95353E-07  1433   0.377E-03
   1 F= -.86267492E+02 E0= -.86268644E+02  d E =0.345668E-02
 running on   16 total cores
 distrk:  each k-point on    8 cores,    2 groups
 distr:  one band on    8 cores,    1 groups
 using from now: INCAR     
 vasp.5.4.4.18Apr17-6-g9f103f2a35 (build Nov 27 2019 20:08:17) complex          
  
 POSCAR found type information on POSCAR  Ti
 POSCAR found :  1 types and      24 ions
 scaLAPACK will be used

 ----------------------------------------------------------------------------- 
|                                                                             |
|           W    W    AA    RRRRR   N    N  II  N    N   GGGG   !!!           |
|           W    W   A  A   R    R  NN   N  II  NN   N  G    G  !!!           |
|           W    W  A    A  R    R  N N  N  II  N N  N  G       !!!           |
|           W WW W  AAAAAA  RRRRR   N  N N  II  N  N N  G  GGG   !            |
|           WW  WW  A    A  R   R   N   NN  II  N   NN  G    G                |
|           W    W  A    A  R    R  N    N  II  N    N   GGGG   !!!           |
|                                                                             |
|      You have enabled k-point parallelism (KPAR>1).                         |
|      This developmental code was originally  written by Paul Kent at ORNL,  |
|      and carefully double checked in Vienna.                                |
|      GW as well as linear response parallelism added by Martijn Marsman     |
|      and Georg Kresse.                                                      |
|      Carefully verify results versus KPAR=1.                                |
|      Report problems to Paul Kent and Vienna.                               |
|                                                                             |
 ----------------------------------------------------------------------------- 

 LDA part: xc-table for Pade appr. of Perdew
 POSCAR found type information on POSCAR  Ti
 POSCAR found :  1 types and      24 ions
 POSCAR, INCAR and KPOINTS ok, starting setup
 FFT: planning ...
 WAVECAR not read
 WARNING: random wavefunctions but no delay for mixing, default for NELMDL
 entering main loop
       N       E                     dE             d eps       ncg     rms          rms(c)
DAV:   1     0.329708738053E+03    0.32971E+03   -0.24740E+04  3904   0.105E+03
DAV:   2    -0.137201000293E+03   -0.46691E+03   -0.45253E+03  3904   0.247E+02
DAV:   3    -0.205056017820E+03   -0.67855E+02   -0.63401E+02  6072   0.824E+01
DAV:   4    -0.210291241025E+03   -0.52352E+01   -0.49301E+01  5992   0.236E+01
DAV:   5    -0.210548812008E+03   -0.25757E+00   -0.24600E+00  5992   0.383E+00    0.564E+01
DAV:   6    -0.263253472977E+03   -0.52705E+02   -0.92819E+02  7492   0.768E+01    0.526E+01
DAV:   7    -0.343458859127E+03   -0.80205E+02   -0.30251E+03  7753   0.121E+02    0.629E+01
DAV:   8    -0.202582860404E+03    0.14088E+03   -0.21281E+03  7339   0.983E+01    0.427E+01
DAV:   9    -0.178863231188E+03    0.23720E+02   -0.52527E+02  6340   0.100E+02    0.195E+01
DAV:  10    -0.180446150565E+03   -0.15829E+01   -0.58425E+01  6296   0.221E+01    0.168E+01
DAV:  11    -0.180988747682E+03   -0.54260E+00   -0.34865E+00  6192   0.467E+00    0.177E+01
DAV:  12    -0.180266804743E+03    0.72194E+00   -0.11015E+00  6256   0.354E+00    0.161E+01
DAV:  13    -0.179673074787E+03    0.59373E+00   -0.32118E-01  6056   0.234E+00    0.148E+01
DAV:  14    -0.178224914078E+03    0.14482E+01   -0.24038E+00  5760   0.675E+00    0.110E+01
DAV:  15    -0.177371106996E+03    0.85381E+00   -0.23023E+00  5496   0.691E+00    0.773E+00
DAV:  16    -0.177217111789E+03    0.15400E+00   -0.88438E-01  6072   0.361E+00    0.671E+00
DAV:  17    -0.177058082168E+03    0.15903E+00   -0.35172E-01  5160   0.275E+00    0.539E+00
DAV:  18    -0.176847797872E+03    0.21028E+00   -0.18932E-01  6768   0.126E+00    0.354E+00
DAV:  19    -0.176831163669E+03    0.16634E-01   -0.30762E-02  5768   0.748E-01    0.309E+00
DAV:  20    -0.176752345877E+03    0.78818E-01   -0.67574E-02  6888   0.801E-01    0.185E+00
DAV:  21    -0.176741015116E+03    0.11331E-01   -0.92544E-03  5640   0.360E-01    0.148E+00
DAV:  22    -0.176724777250E+03    0.16238E-01   -0.15810E-02  7184   0.374E-01    0.861E-01
DAV:  23    -0.176720598249E+03    0.41790E-02   -0.58888E-03  5432   0.283E-01    0.449E-01
DAV:  24    -0.176719697046E+03    0.90120E-03   -0.13326E-03  6408   0.106E-01    0.314E-01
DAV:  25    -0.176719278022E+03    0.41902E-03   -0.28811E-04  6128   0.604E-02    0.226E-01
DAV:  26    -0.176718863187E+03    0.41484E-03   -0.85941E-04  6384   0.886E-02    0.727E-02
DAV:  27    -0.176718837624E+03    0.25562E-04   -0.12683E-04  5064   0.472E-02    0.291E-02
DAV:  28    -0.176718834085E+03    0.35394E-05   -0.20831E-05  4256   0.121E-02
   1 F= -.17671883E+03 E0= -.17671974E+03  d E =0.272200E-02
Distance=2.650
 running on   16 total cores
 distrk:  each k-point on    8 cores,    2 groups
 distr:  one band on    8 cores,    1 groups
 using from now: INCAR     
 vasp.5.4.4.18Apr17-6-g9f103f2a35 (build Nov 27 2019 20:08:17) complex          
  
 POSCAR found type information on POSCAR  Ti
 POSCAR found :  1 types and      12 ions
 scaLAPACK will be used

 ----------------------------------------------------------------------------- 
|                                                                             |
|           W    W    AA    RRRRR   N    N  II  N    N   GGGG   !!!           |
|           W    W   A  A   R    R  NN   N  II  NN   N  G    G  !!!           |
|           W    W  A    A  R    R  N N  N  II  N N  N  G       !!!           |
|           W WW W  AAAAAA  RRRRR   N  N N  II  N  N N  G  GGG   !            |
|           WW  WW  A    A  R   R   N   NN  II  N   NN  G    G                |
|           W    W  A    A  R    R  N    N  II  N    N   GGGG   !!!           |
|                                                                             |
|      You have enabled k-point parallelism (KPAR>1).                         |
|      This developmental code was originally  written by Paul Kent at ORNL,  |
|      and carefully double checked in Vienna.                                |
|      GW as well as linear response parallelism added by Martijn Marsman     |
|      and Georg Kresse.                                                      |
|      Carefully verify results versus KPAR=1.                                |
|      Report problems to Paul Kent and Vienna.                               |
|                                                                             |
 ----------------------------------------------------------------------------- 

 LDA part: xc-table for Pade appr. of Perdew
 POSCAR found type information on POSCAR  Ti
 POSCAR found :  1 types and      12 ions
 POSCAR, INCAR and KPOINTS ok, starting setup
 FFT: planning ...
 WAVECAR not read
 entering main loop
       N       E                     dE             d eps       ncg     rms          rms(c)
DAV:   1     0.198214450094E+03    0.19821E+03   -0.12486E+04  1984   0.941E+02
DAV:   2    -0.683899759574E+02   -0.26660E+03   -0.25612E+03  2006   0.226E+02
DAV:   3    -0.105388568239E+03   -0.36999E+02   -0.34796E+02  3056   0.756E+01
DAV:   4    -0.107979884879E+03   -0.25913E+01   -0.24549E+01  3024   0.235E+01
DAV:   5    -0.108119674572E+03   -0.13979E+00   -0.13598E+00  3272   0.462E+00    0.427E+01
DAV:   6    -0.147700736491E+03   -0.39581E+02   -0.69135E+02  3832   0.802E+01    0.594E+01
DAV:   7    -0.100494142365E+03    0.47207E+02   -0.13266E+03  3733   0.155E+02    0.222E+01
DAV:   8    -0.926803892963E+02    0.78138E+01   -0.14671E+02  3103   0.666E+01    0.186E+01
DAV:   9    -0.913009692422E+02    0.13794E+01   -0.10209E+01  3368   0.127E+01    0.156E+01
DAV:  10    -0.907030445720E+02    0.59792E+00   -0.91176E-01  3304   0.468E+00    0.145E+01
DAV:  11    -0.898046894441E+02    0.89836E+00   -0.38339E-01  3096   0.340E+00    0.125E+01
DAV:  12    -0.870062247874E+02    0.27985E+01   -0.89353E+00  3200   0.163E+01    0.304E+00
DAV:  13    -0.872181624542E+02   -0.21194E+00   -0.10102E+00  3056   0.514E+00    0.419E+00
DAV:  14    -0.868575816843E+02    0.36058E+00   -0.20864E+00  3208   0.717E+00    0.368E-01
DAV:  15    -0.868663313364E+02   -0.87497E-02   -0.94424E-02  3160   0.128E+00    0.284E-01
DAV:  16    -0.868717709080E+02   -0.54396E-02   -0.48994E-02  3272   0.981E-01    0.525E-01
DAV:  17    -0.868686585696E+02    0.31123E-02   -0.46447E-02  3035   0.115E+00    0.146E-01
DAV:  18    -0.868686250661E+02    0.33503E-04   -0.16791E-03  2968   0.172E-01    0.150E-01
DAV:  19    -0.868687505945E+02   -0.12553E-03   -0.10144E-03  3168   0.142E-01    0.714E-02
DAV:  20    -0.868692093534E+02   -0.45876E-03   -0.34275E-04  3072   0.729E-02    0.858E-02
DAV:  21    -0.868696892964E+02   -0.47994E-03   -0.53022E-04  2632   0.127E-01    0.239E-02
DAV:  22    -0.868699691719E+02   -0.27988E-03   -0.43680E-04  3296   0.885E-02    0.394E-02
DAV:  23    -0.868700536485E+02   -0.84477E-04   -0.42167E-05  2584   0.285E-02    0.302E-02
DAV:  24    -0.868700890665E+02   -0.35418E-04   -0.64324E-05  2936   0.439E-02    0.682E-03
DAV:  25    -0.868700953702E+02   -0.63037E-05   -0.38489E-06  1776   0.103E-02    0.212E-03
DAV:  26    -0.868700995074E+02   -0.41372E-05   -0.29441E-06  1712   0.582E-03
   1 F= -.86870100E+02 E0= -.86870579E+02  d E =0.143790E-02
 running on   16 total cores
 distrk:  each k-point on    8 cores,    2 groups
 distr:  one band on    8 cores,    1 groups
 using from now: INCAR     
 vasp.5.4.4.18Apr17-6-g9f103f2a35 (build Nov 27 2019 20:08:17) complex          
  
 POSCAR found type information on POSCAR  Ti
 POSCAR found :  1 types and      12 ions
 scaLAPACK will be used

 ----------------------------------------------------------------------------- 
|                                                                             |
|           W    W    AA    RRRRR   N    N  II  N    N   GGGG   !!!           |
|           W    W   A  A   R    R  NN   N  II  NN   N  G    G  !!!           |
|           W    W  A    A  R    R  N N  N  II  N N  N  G       !!!           |
|           W WW W  AAAAAA  RRRRR   N  N N  II  N  N N  G  GGG   !            |
|           WW  WW  A    A  R   R   N   NN  II  N   NN  G    G                |
|           W    W  A    A  R    R  N    N  II  N    N   GGGG   !!!           |
|                                                                             |
|      You have enabled k-point parallelism (KPAR>1).                         |
|      This developmental code was originally  written by Paul Kent at ORNL,  |
|      and carefully double checked in Vienna.                                |
|      GW as well as linear response parallelism added by Martijn Marsman     |
|      and Georg Kresse.                                                      |
|      Carefully verify results versus KPAR=1.                                |
|      Report problems to Paul Kent and Vienna.                               |
|                                                                             |
 ----------------------------------------------------------------------------- 

 LDA part: xc-table for Pade appr. of Perdew
 POSCAR found type information on POSCAR  Ti
 POSCAR found :  1 types and      12 ions
 POSCAR, INCAR and KPOINTS ok, starting setup
 FFT: planning ...
 WAVECAR not read
 WARNING: random wavefunctions but no delay for mixing, default for NELMDL
 entering main loop
       N       E                     dE             d eps       ncg     rms          rms(c)
DAV:   1     0.185350859312E+03    0.18535E+03   -0.12398E+04  1984   0.941E+02
DAV:   2    -0.719609834396E+02   -0.25731E+03   -0.24733E+03  2000   0.223E+02
DAV:   3    -0.108303937362E+03   -0.36343E+02   -0.33359E+02  3024   0.733E+01
DAV:   4    -0.110616010695E+03   -0.23121E+01   -0.21410E+01  2984   0.228E+01
DAV:   5    -0.110714823934E+03   -0.98813E-01   -0.96186E-01  3034   0.414E+00    0.386E+01
DAV:   6    -0.161131377833E+03   -0.50417E+02   -0.77734E+02  3898   0.786E+01    0.623E+01
DAV:   7    -0.957725593764E+02    0.65359E+02   -0.12494E+03  3813   0.137E+02    0.209E+01
DAV:   8    -0.928207700614E+02    0.29518E+01   -0.15274E+02  3106   0.643E+01    0.174E+01
DAV:   9    -0.905004436447E+02    0.23203E+01   -0.18405E+01  3354   0.191E+01    0.136E+01
DAV:  10    -0.897916012169E+02    0.70884E+00   -0.18272E+00  3163   0.511E+00    0.122E+01
DAV:  11    -0.875485437579E+02    0.22431E+01   -0.29945E+00  2846   0.987E+00    0.750E+00
DAV:  12    -0.862814889356E+02    0.12671E+01   -0.60880E+00  3280   0.112E+01    0.202E+00
DAV:  13    -0.863148703584E+02   -0.33381E-01   -0.33368E-01  3045   0.266E+00    0.193E+00
DAV:  14    -0.863036219288E+02    0.11248E-01   -0.86921E-01  2908   0.512E+00    0.175E+00
DAV:  15    -0.862746051446E+02    0.29017E-01   -0.31275E-01  2695   0.297E+00    0.773E-01
DAV:  16    -0.862655033877E+02    0.91018E-02   -0.66909E-02  3194   0.118E+00    0.247E-01
DAV:  17    -0.862711685306E+02   -0.56651E-02   -0.33978E-02  3379   0.845E-01    0.639E-01
DAV:  18    -0.862657290261E+02    0.54395E-02   -0.21939E-02  3169   0.617E-01    0.208E-01
DAV:  19    -0.862661732595E+02   -0.44423E-03   -0.94272E-03  3312   0.375E-01    0.179E-01
DAV:  20    -0.862659734829E+02    0.19978E-03   -0.42195E-03  2868   0.348E-01    0.650E-02
DAV:  21    -0.862666759364E+02   -0.70245E-03   -0.17402E-03  3043   0.198E-01    0.807E-02
DAV:  22    -0.862672161988E+02   -0.54026E-03   -0.32490E-04  2599   0.875E-02    0.506E-02
DAV:  23    -0.862674258922E+02   -0.20969E-03   -0.51211E-04  3304   0.992E-02    0.266E-02
DAV:  24    -0.862674640917E+02   -0.38200E-04   -0.42461E-05  2630   0.365E-02    0.126E-02
DAV:  25    -0.862674841444E+02   -0.20053E-04   -0.10307E-05  1625   0.221E-02    0.458E-03
DAV:  26    -0.862674856543E+02   -0.15099E-05   -0.54822E-06  1497   0.124E-02
   1 F= -.86267486E+02 E0= -.86268639E+02  d E =0.346086E-02
 running on   16 total cores
 distrk:  each k-point on    8 cores,    2 groups
 distr:  one band on    8 cores,    1 groups
 using from now: INCAR     
 vasp.5.4.4.18Apr17-6-g9f103f2a35 (build Nov 27 2019 20:08:17) complex          
  
 POSCAR found type information on POSCAR  Ti
 POSCAR found :  1 types and      24 ions
 scaLAPACK will be used

 ----------------------------------------------------------------------------- 
|                                                                             |
|           W    W    AA    RRRRR   N    N  II  N    N   GGGG   !!!           |
|           W    W   A  A   R    R  NN   N  II  NN   N  G    G  !!!           |
|           W    W  A    A  R    R  N N  N  II  N N  N  G       !!!           |
|           W WW W  AAAAAA  RRRRR   N  N N  II  N  N N  G  GGG   !            |
|           WW  WW  A    A  R   R   N   NN  II  N   NN  G    G                |
|           W    W  A    A  R    R  N    N  II  N    N   GGGG   !!!           |
|                                                                             |
|      You have enabled k-point parallelism (KPAR>1).                         |
|      This developmental code was originally  written by Paul Kent at ORNL,  |
|      and carefully double checked in Vienna.                                |
|      GW as well as linear response parallelism added by Martijn Marsman     |
|      and Georg Kresse.                                                      |
|      Carefully verify results versus KPAR=1.                                |
|      Report problems to Paul Kent and Vienna.                               |
|                                                                             |
 ----------------------------------------------------------------------------- 

 LDA part: xc-table for Pade appr. of Perdew
 POSCAR found type information on POSCAR  Ti
 POSCAR found :  1 types and      24 ions
 POSCAR, INCAR and KPOINTS ok, starting setup
 FFT: planning ...
 WAVECAR not read
 WARNING: random wavefunctions but no delay for mixing, default for NELMDL
 entering main loop
       N       E                     dE             d eps       ncg     rms          rms(c)
DAV:   1     0.328682444472E+03    0.32868E+03   -0.24723E+04  3904   0.105E+03
DAV:   2    -0.137922807482E+03   -0.46661E+03   -0.45220E+03  3904   0.247E+02
DAV:   3    -0.205771895102E+03   -0.67849E+02   -0.63392E+02  6040   0.827E+01
DAV:   4    -0.210965028892E+03   -0.51931E+01   -0.48767E+01  6008   0.233E+01
DAV:   5    -0.211217833091E+03   -0.25280E+00   -0.24111E+00  5952   0.381E+00    0.565E+01
DAV:   6    -0.266342674636E+03   -0.55125E+02   -0.97900E+02  7453   0.776E+01    0.536E+01
DAV:   7    -0.342383292729E+03   -0.76041E+02   -0.30663E+03  7778   0.122E+02    0.628E+01
DAV:   8    -0.204033363980E+03    0.13835E+03   -0.21697E+03  7387   0.998E+01    0.431E+01
DAV:   9    -0.179252412080E+03    0.24781E+02   -0.53393E+02  6385   0.101E+02    0.198E+01
DAV:  10    -0.180623270853E+03   -0.13709E+01   -0.59071E+01  6296   0.222E+01    0.171E+01
DAV:  11    -0.181113323479E+03   -0.49005E+00   -0.37148E+00  6240   0.474E+00    0.178E+01
DAV:  12    -0.180620870898E+03    0.49245E+00   -0.80679E-01  6280   0.275E+00    0.168E+01
DAV:  13    -0.180271845321E+03    0.34903E+00   -0.16189E-01  6160   0.160E+00    0.162E+01
DAV:  14    -0.179069796861E+03    0.12020E+01   -0.26773E+00  6216   0.640E+00    0.137E+01
DAV:  15    -0.177940787072E+03    0.11290E+01   -0.31025E+00  5472   0.790E+00    0.107E+01
DAV:  16    -0.177690099435E+03    0.25069E+00   -0.10958E+00  6272   0.418E+00    0.964E+00
DAV:  17    -0.177452666069E+03    0.23743E+00   -0.43030E-01  5232   0.298E+00    0.829E+00
DAV:  18    -0.177150462139E+03    0.30220E+00   -0.18619E-01  6248   0.155E+00    0.653E+00
DAV:  19    -0.177128038169E+03    0.22424E-01   -0.39432E-02  5816   0.829E-01    0.595E+00
DAV:  20    -0.176918682224E+03    0.20936E+00   -0.15184E-01  6632   0.104E+00    0.410E+00
DAV:  21    -0.176852268966E+03    0.66413E-01   -0.40749E-02  6016   0.645E-01    0.318E+00
DAV:  22    -0.176829466083E+03    0.22803E-01   -0.80786E-03  6264   0.255E-01    0.281E+00
DAV:  23    -0.176787818633E+03    0.41647E-01   -0.21108E-02  6632   0.486E-01    0.198E+00
DAV:  24    -0.176777810455E+03    0.10008E-01   -0.56205E-03  5416   0.294E-01    0.165E+00
DAV:  25    -0.176755663870E+03    0.22147E-01   -0.27007E-02  6536   0.511E-01    0.777E-01
DAV:  26    -0.176754175962E+03    0.14879E-02   -0.33236E-03  5094   0.249E-01    0.588E-01
DAV:  27    -0.176751897787E+03    0.22782E-02   -0.29259E-03  6688   0.140E-01    0.311E-01
DAV:  28    -0.176751246609E+03    0.65118E-03   -0.12428E-03  5784   0.114E-01    0.122E-01
DAV:  29    -0.176751137359E+03    0.10925E-03   -0.60071E-04  6416   0.753E-02    0.273E-02
DAV:  30    -0.176751131088E+03    0.62713E-05   -0.70002E-05  5179   0.361E-02    0.122E-02
DAV:  31    -0.176751132602E+03   -0.15145E-05   -0.17449E-05  3416   0.164E-02
   1 F= -.17675113E+03 E0= -.17675147E+03  d E =0.101284E-02
Distance=2.700
 running on   16 total cores
 distrk:  each k-point on    8 cores,    2 groups
 distr:  one band on    8 cores,    1 groups
 using from now: INCAR     
 vasp.5.4.4.18Apr17-6-g9f103f2a35 (build Nov 27 2019 20:08:17) complex          
  
 POSCAR found type information on POSCAR  Ti
 POSCAR found :  1 types and      12 ions
 scaLAPACK will be used

 ----------------------------------------------------------------------------- 
|                                                                             |
|           W    W    AA    RRRRR   N    N  II  N    N   GGGG   !!!           |
|           W    W   A  A   R    R  NN   N  II  NN   N  G    G  !!!           |
|           W    W  A    A  R    R  N N  N  II  N N  N  G       !!!           |
|           W WW W  AAAAAA  RRRRR   N  N N  II  N  N N  G  GGG   !            |
|           WW  WW  A    A  R   R   N   NN  II  N   NN  G    G                |
|           W    W  A    A  R    R  N    N  II  N    N   GGGG   !!!           |
|                                                                             |
|      You have enabled k-point parallelism (KPAR>1).                         |
|      This developmental code was originally  written by Paul Kent at ORNL,  |
|      and carefully double checked in Vienna.                                |
|      GW as well as linear response parallelism added by Martijn Marsman     |
|      and Georg Kresse.                                                      |
|      Carefully verify results versus KPAR=1.                                |
|      Report problems to Paul Kent and Vienna.                               |
|                                                                             |
 ----------------------------------------------------------------------------- 

 LDA part: xc-table for Pade appr. of Perdew
 POSCAR found type information on POSCAR  Ti
 POSCAR found :  1 types and      12 ions
 POSCAR, INCAR and KPOINTS ok, starting setup
 FFT: planning ...
 WAVECAR not read
 entering main loop
       N       E                     dE             d eps       ncg     rms          rms(c)
DAV:   1     0.199052016910E+03    0.19905E+03   -0.12443E+04  1984   0.938E+02
DAV:   2    -0.684120596910E+02   -0.26746E+03   -0.25638E+03  2005   0.226E+02
DAV:   3    -0.105253355940E+03   -0.36841E+02   -0.34473E+02  3016   0.760E+01
DAV:   4    -0.107976422116E+03   -0.27231E+01   -0.25985E+01  3048   0.235E+01
DAV:   5    -0.108120509942E+03   -0.14409E+00   -0.14042E+00  3224   0.469E+00    0.427E+01
DAV:   6    -0.147406849847E+03   -0.39286E+02   -0.68773E+02  3854   0.801E+01    0.595E+01
DAV:   7    -0.100675530167E+03    0.46731E+02   -0.13365E+03  3754   0.155E+02    0.223E+01
DAV:   8    -0.927689016081E+02    0.79066E+01   -0.14629E+02  3070   0.671E+01    0.186E+01
DAV:   9    -0.914986394437E+02    0.12703E+01   -0.10425E+01  3336   0.134E+01    0.159E+01
DAV:  10    -0.908179163221E+02    0.68072E+00   -0.98178E-01  3313   0.501E+00    0.147E+01
DAV:  11    -0.894065107644E+02    0.14114E+01   -0.86479E-01  3080   0.523E+00    0.116E+01
DAV:  12    -0.870034955528E+02    0.24030E+01   -0.77760E+00  3232   0.149E+01    0.295E+00
DAV:  13    -0.871952897415E+02   -0.19179E+00   -0.11033E+00  3088   0.533E+00    0.406E+00
DAV:  14    -0.868570422650E+02    0.33825E+00   -0.20430E+00  3224   0.692E+00    0.522E-01
DAV:  15    -0.868663633438E+02   -0.93211E-02   -0.94984E-02  3266   0.123E+00    0.269E-01
DAV:  16    -0.868702079506E+02   -0.38446E-02   -0.38000E-02  3256   0.798E-01    0.390E-01
DAV:  17    -0.868687759919E+02    0.14320E-02   -0.30797E-02  3065   0.928E-01    0.127E-01
DAV:  18    -0.868695852338E+02   -0.80924E-03   -0.27694E-03  3248   0.238E-01    0.243E-01
DAV:  19    -0.868688943911E+02    0.69084E-03   -0.38811E-03  3080   0.328E-01    0.618E-02
DAV:  20    -0.868694528685E+02   -0.55848E-03   -0.30768E-04  2864   0.717E-02    0.723E-02
DAV:  21    -0.868699099597E+02   -0.45709E-03   -0.90139E-04  2632   0.175E-01    0.306E-02
DAV:  22    -0.868701410487E+02   -0.23109E-03   -0.13571E-04  3160   0.462E-02    0.212E-02
DAV:  23    -0.868701990975E+02   -0.58049E-04   -0.14967E-05  2016   0.205E-02    0.228E-02
DAV:  24    -0.868702559783E+02   -0.56881E-04   -0.15978E-05  2016   0.212E-02    0.122E-02
DAV:  25    -0.868702597234E+02   -0.37451E-05   -0.21283E-05  2336   0.194E-02
   1 F= -.86870260E+02 E0= -.86870740E+02  d E =0.143985E-02
 running on   16 total cores
 distrk:  each k-point on    8 cores,    2 groups
 distr:  one band on    8 cores,    1 groups
 using from now: INCAR     
 vasp.5.4.4.18Apr17-6-g9f103f2a35 (build Nov 27 2019 20:08:17) complex          
  
 POSCAR found type information on POSCAR  Ti
 POSCAR found :  1 types and      12 ions
 scaLAPACK will be used

 ----------------------------------------------------------------------------- 
|                                                                             |
|           W    W    AA    RRRRR   N    N  II  N    N   GGGG   !!!           |
|           W    W   A  A   R    R  NN   N  II  NN   N  G    G  !!!           |
|           W    W  A    A  R    R  N N  N  II  N N  N  G       !!!           |
|           W WW W  AAAAAA  RRRRR   N  N N  II  N  N N  G  GGG   !            |
|           WW  WW  A    A  R   R   N   NN  II  N   NN  G    G                |
|           W    W  A    A  R    R  N    N  II  N    N   GGGG   !!!           |
|                                                                             |
|      You have enabled k-point parallelism (KPAR>1).                         |
|      This developmental code was originally  written by Paul Kent at ORNL,  |
|      and carefully double checked in Vienna.                                |
|      GW as well as linear response parallelism added by Martijn Marsman     |
|      and Georg Kresse.                                                      |
|      Carefully verify results versus KPAR=1.                                |
|      Report problems to Paul Kent and Vienna.                               |
|                                                                             |
 ----------------------------------------------------------------------------- 

 LDA part: xc-table for Pade appr. of Perdew
 POSCAR found type information on POSCAR  Ti
 POSCAR found :  1 types and      12 ions
 POSCAR, INCAR and KPOINTS ok, starting setup
 FFT: planning ...
 WAVECAR not read
 WARNING: random wavefunctions but no delay for mixing, default for NELMDL
 entering main loop
       N       E                     dE             d eps       ncg     rms          rms(c)
DAV:   1     0.187188848023E+03    0.18719E+03   -0.12334E+04  1984   0.938E+02
DAV:   2    -0.714127710633E+02   -0.25860E+03   -0.24769E+03  2006   0.223E+02
DAV:   3    -0.108411376080E+03   -0.36999E+02   -0.34309E+02  3048   0.739E+01
DAV:   4    -0.110616859966E+03   -0.22055E+01   -0.20778E+01  2944   0.227E+01
DAV:   5    -0.110714194650E+03   -0.97335E-01   -0.94347E-01  3028   0.408E+00    0.386E+01
DAV:   6    -0.161044528696E+03   -0.50330E+02   -0.77553E+02  3905   0.785E+01    0.624E+01
DAV:   7    -0.957539755060E+02    0.65291E+02   -0.12533E+03  3814   0.137E+02    0.209E+01
DAV:   8    -0.928818661441E+02    0.28721E+01   -0.15419E+02  3062   0.646E+01    0.175E+01
DAV:   9    -0.905203305113E+02    0.23615E+01   -0.18769E+01  3387   0.194E+01    0.136E+01
DAV:  10    -0.898171058631E+02    0.70322E+00   -0.21691E+00  3081   0.539E+00    0.122E+01
DAV:  11    -0.873782504090E+02    0.24389E+01   -0.36582E+00  2857   0.110E+01    0.706E+00
DAV:  12    -0.862778732629E+02    0.11004E+01   -0.55693E+00  3288   0.104E+01    0.191E+00
DAV:  13    -0.863099231481E+02   -0.32050E-01   -0.31734E-01  3042   0.252E+00    0.182E+00
DAV:  14    -0.863065803853E+02    0.33428E-02   -0.95696E-01  3026   0.515E+00    0.181E+00
DAV:  15    -0.862714714568E+02    0.35109E-01   -0.36265E-01  2813   0.301E+00    0.664E-01
DAV:  16    -0.862648283627E+02    0.66431E-02   -0.28841E-02  2944   0.852E-01    0.199E-01
DAV:  17    -0.862715112760E+02   -0.66829E-02   -0.64341E-02  3278   0.106E+00    0.655E-01
DAV:  18    -0.862662015561E+02    0.53097E-02   -0.16577E-02  3126   0.566E-01    0.281E-01
DAV:  19    -0.862664893812E+02   -0.28783E-03   -0.20378E-02  3353   0.545E-01    0.232E-01
DAV:  20    -0.862659074166E+02    0.58196E-03   -0.44326E-03  2882   0.336E-01    0.428E-02
DAV:  21    -0.862666415214E+02   -0.73410E-03   -0.84428E-04  2600   0.183E-01    0.571E-02
DAV:  22    -0.862671881936E+02   -0.54667E-03   -0.39669E-04  3070   0.902E-02    0.254E-02
DAV:  23    -0.862672938391E+02   -0.10565E-03   -0.88525E-05  2830   0.503E-02    0.119E-02
DAV:  24    -0.862673807022E+02   -0.86863E-04   -0.12560E-05  1979   0.143E-02    0.107E-02
DAV:  25    -0.862673911560E+02   -0.10454E-04   -0.67652E-06  1653   0.151E-02    0.458E-03
DAV:  26    -0.862673954592E+02   -0.43032E-05   -0.24703E-06  1526   0.683E-03
   1 F= -.86267395E+02 E0= -.86268548E+02  d E =0.345868E-02
 running on   16 total cores
 distrk:  each k-point on    8 cores,    2 groups
 distr:  one band on    8 cores,    1 groups
 using from now: INCAR     
 vasp.5.4.4.18Apr17-6-g9f103f2a35 (build Nov 27 2019 20:08:17) complex          
  
 POSCAR found type information on POSCAR  Ti
 POSCAR found :  1 types and      24 ions
 scaLAPACK will be used

 ----------------------------------------------------------------------------- 
|                                                                             |
|           W    W    AA    RRRRR   N    N  II  N    N   GGGG   !!!           |
|           W    W   A  A   R    R  NN   N  II  NN   N  G    G  !!!           |
|           W    W  A    A  R    R  N N  N  II  N N  N  G       !!!           |
|           W WW W  AAAAAA  RRRRR   N  N N  II  N  N N  G  GGG   !            |
|           WW  WW  A    A  R   R   N   NN  II  N   NN  G    G                |
|           W    W  A    A  R    R  N    N  II  N    N   GGGG   !!!           |
|                                                                             |
|      You have enabled k-point parallelism (KPAR>1).                         |
|      This developmental code was originally  written by Paul Kent at ORNL,  |
|      and carefully double checked in Vienna.                                |
|      GW as well as linear response parallelism added by Martijn Marsman     |
|      and Georg Kresse.                                                      |
|      Carefully verify results versus KPAR=1.                                |
|      Report problems to Paul Kent and Vienna.                               |
|                                                                             |
 ----------------------------------------------------------------------------- 

 LDA part: xc-table for Pade appr. of Perdew
 POSCAR found type information on POSCAR  Ti
 POSCAR found :  1 types and      24 ions
 POSCAR, INCAR and KPOINTS ok, starting setup
 FFT: planning ...
 WAVECAR not read
 WARNING: random wavefunctions but no delay for mixing, default for NELMDL
 entering main loop
       N       E                     dE             d eps       ncg     rms          rms(c)
DAV:   1     0.330339058234E+03    0.33034E+03   -0.24787E+04  3904   0.105E+03
DAV:   2    -0.137879491989E+03   -0.46822E+03   -0.45368E+03  3904   0.247E+02
DAV:   3    -0.206283302846E+03   -0.68404E+02   -0.63723E+02  6008   0.828E+01
DAV:   4    -0.211580130870E+03   -0.52968E+01   -0.49926E+01  6016   0.238E+01
DAV:   5    -0.211836477516E+03   -0.25635E+00   -0.24425E+00  5960   0.385E+00    0.566E+01
DAV:   6    -0.269054064813E+03   -0.57218E+02   -0.10187E+03  7418   0.782E+01    0.548E+01
DAV:   7    -0.340319294310E+03   -0.71265E+02   -0.31068E+03  7763   0.125E+02    0.625E+01
DAV:   8    -0.207337604468E+03    0.13298E+03   -0.22041E+03  7355   0.101E+02    0.443E+01
DAV:   9    -0.179483389241E+03    0.27854E+02   -0.54830E+02  6409   0.103E+02    0.202E+01
DAV:  10    -0.180772863209E+03   -0.12895E+01   -0.62159E+01  6304   0.228E+01    0.173E+01
DAV:  11    -0.181330075143E+03   -0.55721E+00   -0.39530E+00  6232   0.503E+00    0.181E+01
DAV:  12    -0.180788097367E+03    0.54198E+00   -0.66680E-01  6259   0.253E+00    0.170E+01
DAV:  13    -0.180254732160E+03    0.53337E+00   -0.26856E-01  6088   0.208E+00    0.160E+01
DAV:  14    -0.178365989061E+03    0.18887E+01   -0.35568E+00  5544   0.834E+00    0.116E+01
DAV:  15    -0.177558344620E+03    0.80764E+00   -0.28755E+00  5784   0.739E+00    0.913E+00
DAV:  16    -0.177409624713E+03    0.14872E+00   -0.89121E-01  6200   0.360E+00    0.803E+00
DAV:  17    -0.177268518237E+03    0.14111E+00   -0.21895E-01  5672   0.203E+00    0.708E+00
DAV:  18    -0.176993214348E+03    0.27530E+00   -0.26674E-01  6315   0.181E+00    0.515E+00
DAV:  19    -0.176984807561E+03    0.84068E-02   -0.30801E-02  5488   0.773E-01    0.467E+00
DAV:  20    -0.176858305568E+03    0.12650E+00   -0.96647E-02  6800   0.869E-01    0.311E+00
DAV:  21    -0.176822773901E+03    0.35532E-01   -0.25186E-02  5872   0.534E-01    0.237E+00
DAV:  22    -0.176809539622E+03    0.13234E-01   -0.54393E-03  6352   0.213E-01    0.208E+00
DAV:  23    -0.176788812602E+03    0.20727E-01   -0.11614E-02  6200   0.379E-01    0.150E+00
DAV:  24    -0.176776237437E+03    0.12575E-01   -0.12354E-02  6152   0.370E-01    0.874E-01
DAV:  25    -0.176772237021E+03    0.40004E-02   -0.44428E-03  6048   0.211E-01    0.509E-01
DAV:  26    -0.176770856173E+03    0.13808E-02   -0.15539E-03  6472   0.108E-01    0.292E-01
DAV:  27    -0.176770486118E+03    0.37005E-03   -0.37198E-04  5992   0.631E-02    0.200E-01
DAV:  28    -0.176770122320E+03    0.36380E-03   -0.11865E-03  6272   0.103E-01    0.235E-02
DAV:  29    -0.176770129638E+03   -0.73186E-05   -0.16179E-04  5032   0.558E-02    0.391E-02
DAV:  30    -0.176770125379E+03    0.42590E-05   -0.13449E-05  3680   0.116E-02
   1 F= -.17677013E+03 E0= -.17677002E+03  d E =-.304147E-03
Distance=2.750
 running on   16 total cores
 distrk:  each k-point on    8 cores,    2 groups
 distr:  one band on    8 cores,    1 groups
 using from now: INCAR     
 vasp.5.4.4.18Apr17-6-g9f103f2a35 (build Nov 27 2019 20:08:17) complex          
  
 POSCAR found type information on POSCAR  Ti
 POSCAR found :  1 types and      12 ions
 scaLAPACK will be used

 ----------------------------------------------------------------------------- 
|                                                                             |
|           W    W    AA    RRRRR   N    N  II  N    N   GGGG   !!!           |
|           W    W   A  A   R    R  NN   N  II  NN   N  G    G  !!!           |
|           W    W  A    A  R    R  N N  N  II  N N  N  G       !!!           |
|           W WW W  AAAAAA  RRRRR   N  N N  II  N  N N  G  GGG   !            |
|           WW  WW  A    A  R   R   N   NN  II  N   NN  G    G                |
|           W    W  A    A  R    R  N    N  II  N    N   GGGG   !!!           |
|                                                                             |
|      You have enabled k-point parallelism (KPAR>1).                         |
|      This developmental code was originally  written by Paul Kent at ORNL,  |
|      and carefully double checked in Vienna.                                |
|      GW as well as linear response parallelism added by Martijn Marsman     |
|      and Georg Kresse.                                                      |
|      Carefully verify results versus KPAR=1.                                |
|      Report problems to Paul Kent and Vienna.                               |
|                                                                             |
 ----------------------------------------------------------------------------- 

 LDA part: xc-table for Pade appr. of Perdew
 POSCAR found type information on POSCAR  Ti
 POSCAR found :  1 types and      12 ions
 POSCAR, INCAR and KPOINTS ok, starting setup
 FFT: planning ...
 WAVECAR not read
 entering main loop
       N       E                     dE             d eps       ncg     rms          rms(c)
DAV:   1     0.199718746402E+03    0.19972E+03   -0.12453E+04  1984   0.936E+02
DAV:   2    -0.688149102053E+02   -0.26853E+03   -0.25731E+03  2029   0.227E+02
DAV:   3    -0.105381931325E+03   -0.36567E+02   -0.34151E+02  3048   0.760E+01
DAV:   4    -0.107975729243E+03   -0.25938E+01   -0.24669E+01  3040   0.232E+01
DAV:   5    -0.108117169798E+03   -0.14144E+00   -0.13659E+00  3233   0.460E+00    0.427E+01
DAV:   6    -0.147165244317E+03   -0.39048E+02   -0.68606E+02  3860   0.800E+01    0.592E+01
DAV:   7    -0.100691193617E+03    0.46474E+02   -0.13239E+03  3718   0.156E+02    0.223E+01
DAV:   8    -0.926535484418E+02    0.80376E+01   -0.14713E+02  3116   0.666E+01    0.186E+01
DAV:   9    -0.912614101041E+02    0.13921E+01   -0.10458E+01  3352   0.125E+01    0.155E+01
DAV:  10    -0.906722561617E+02    0.58915E+00   -0.93853E-01  3268   0.469E+00    0.144E+01
DAV:  11    -0.898432526838E+02    0.82900E+00   -0.34564E-01  3136   0.318E+00    0.126E+01
DAV:  12    -0.870146208408E+02    0.28286E+01   -0.89150E+00  3176   0.163E+01    0.311E+00
DAV:  13    -0.871950935691E+02   -0.18047E+00   -0.88286E-01  3068   0.492E+00    0.406E+00
DAV:  14    -0.868574357877E+02    0.33766E+00   -0.18181E+00  3216   0.681E+00    0.273E-01
DAV:  15    -0.868652226292E+02   -0.77868E-02   -0.83428E-02  3184   0.125E+00    0.320E-01
DAV:  16    -0.868715795376E+02   -0.63569E-02   -0.59942E-02  3328   0.110E+00    0.597E-01
DAV:  17    -0.868677243087E+02    0.38552E-02   -0.56375E-02  3112   0.125E+00    0.155E-01
DAV:  18    -0.868672584054E+02    0.46590E-03   -0.30797E-03  3056   0.265E-01    0.824E-02
DAV:  19    -0.868676493365E+02   -0.39093E-03   -0.63033E-04  2968   0.958E-02    0.671E-02
DAV:  20    -0.868679432932E+02   -0.29396E-03   -0.29810E-04  3224   0.621E-02    0.712E-02
DAV:  21    -0.868684177952E+02   -0.47450E-03   -0.16075E-04  2448   0.626E-02    0.488E-02
DAV:  22    -0.868686674547E+02   -0.24966E-03   -0.78220E-04  3256   0.134E-01    0.362E-02
DAV:  23    -0.868687883560E+02   -0.12090E-03   -0.49025E-05  2648   0.305E-02    0.261E-02
DAV:  24    -0.868688239439E+02   -0.35588E-04   -0.56249E-05  2968   0.400E-02    0.347E-03
DAV:  25    -0.868688358532E+02   -0.11909E-04   -0.11470E-06  1768   0.835E-03    0.176E-03
DAV:  26    -0.868688394228E+02   -0.35696E-05   -0.10172E-06  1720   0.565E-03
   1 F= -.86868839E+02 E0= -.86869318E+02  d E =0.143718E-02
 running on   16 total cores
 distrk:  each k-point on    8 cores,    2 groups
 distr:  one band on    8 cores,    1 groups
 using from now: INCAR     
 vasp.5.4.4.18Apr17-6-g9f103f2a35 (build Nov 27 2019 20:08:17) complex          
  
 POSCAR found type information on POSCAR  Ti
 POSCAR found :  1 types and      12 ions
 scaLAPACK will be used

 ----------------------------------------------------------------------------- 
|                                                                             |
|           W    W    AA    RRRRR   N    N  II  N    N   GGGG   !!!           |
|           W    W   A  A   R    R  NN   N  II  NN   N  G    G  !!!           |
|           W    W  A    A  R    R  N N  N  II  N N  N  G       !!!           |
|           W WW W  AAAAAA  RRRRR   N  N N  II  N  N N  G  GGG   !            |
|           WW  WW  A    A  R   R   N   NN  II  N   NN  G    G                |
|           W    W  A    A  R    R  N    N  II  N    N   GGGG   !!!           |
|                                                                             |
|      You have enabled k-point parallelism (KPAR>1).                         |
|      This developmental code was originally  written by Paul Kent at ORNL,  |
|      and carefully double checked in Vienna.                                |
|      GW as well as linear response parallelism added by Martijn Marsman     |
|      and Georg Kresse.                                                      |
|      Carefully verify results versus KPAR=1.                                |
|      Report problems to Paul Kent and Vienna.                               |
|                                                                             |
 ----------------------------------------------------------------------------- 

 LDA part: xc-table for Pade appr. of Perdew
 POSCAR found type information on POSCAR  Ti
 POSCAR found :  1 types and      12 ions
 POSCAR, INCAR and KPOINTS ok, starting setup
 FFT: planning ...
 WAVECAR not read
 WARNING: random wavefunctions but no delay for mixing, default for NELMDL
 entering main loop
       N       E                     dE             d eps       ncg     rms          rms(c)
DAV:   1     0.187510287647E+03    0.18751E+03   -0.12355E+04  1984   0.937E+02
DAV:   2    -0.723320048532E+02   -0.25984E+03   -0.24984E+03  2015   0.224E+02
DAV:   3    -0.108391960727E+03   -0.36060E+02   -0.33056E+02  2960   0.737E+01
DAV:   4    -0.110612220797E+03   -0.22203E+01   -0.20730E+01  2912   0.230E+01
DAV:   5    -0.110713811729E+03   -0.10159E+00   -0.99192E-01  3023   0.429E+00    0.386E+01
DAV:   6    -0.160825493912E+03   -0.50112E+02   -0.77462E+02  3919   0.784E+01    0.624E+01
DAV:   7    -0.957430569056E+02    0.65082E+02   -0.12542E+03  3814   0.137E+02    0.209E+01
DAV:   8    -0.929952764096E+02    0.27478E+01   -0.15407E+02  3087   0.646E+01    0.177E+01
DAV:   9    -0.905711434032E+02    0.24241E+01   -0.19714E+01  3349   0.198E+01    0.137E+01
DAV:  10    -0.898106028630E+02    0.76054E+00   -0.20852E+00  3165   0.539E+00    0.122E+01
DAV:  11    -0.875198781498E+02    0.22907E+01   -0.30774E+00  2829   0.101E+01    0.747E+00
DAV:  12    -0.862832192728E+02    0.12367E+01   -0.59693E+00  3272   0.109E+01    0.192E+00
DAV:  13    -0.863184831975E+02   -0.35264E-01   -0.32648E-01  3069   0.256E+00    0.189E+00
DAV:  14    -0.863144456394E+02    0.40376E-02   -0.11580E+00  3051   0.570E+00    0.196E+00
DAV:  15    -0.862729873203E+02    0.41458E-01   -0.45719E-01  2843   0.335E+00    0.726E-01
DAV:  16    -0.862650522273E+02    0.79351E-02   -0.31343E-02  2942   0.891E-01    0.242E-01
DAV:  17    -0.862737262294E+02   -0.86740E-02   -0.91215E-02  3290   0.120E+00    0.761E-01
DAV:  18    -0.862666920974E+02    0.70341E-02   -0.21026E-02  3170   0.641E-01    0.340E-01
DAV:  19    -0.862666367713E+02    0.55326E-04   -0.28844E-02  3329   0.654E-01    0.252E-01
DAV:  20    -0.862658423323E+02    0.79444E-03   -0.38691E-03  2810   0.327E-01    0.782E-02
DAV:  21    -0.862664509866E+02   -0.60865E-03   -0.81267E-04  2658   0.172E-01    0.601E-02
DAV:  22    -0.862670226698E+02   -0.57168E-03   -0.64716E-04  3120   0.109E-01    0.288E-02
DAV:  23    -0.862671581205E+02   -0.13545E-03   -0.44627E-05  2674   0.324E-02    0.175E-02
DAV:  24    -0.862672725941E+02   -0.11447E-03   -0.61138E-05  2877   0.355E-02    0.112E-02
DAV:  25    -0.862672786528E+02   -0.60586E-05   -0.84647E-06  1688   0.172E-02    0.339E-03
DAV:  26    -0.862672853882E+02   -0.67354E-05   -0.39331E-06  1491   0.781E-03    0.223E-03
DAV:  27    -0.862672874624E+02   -0.20742E-05   -0.16313E-06  1475   0.640E-03
   1 F= -.86267287E+02 E0= -.86268445E+02  d E =0.347161E-02
 running on   16 total cores
 distrk:  each k-point on    8 cores,    2 groups
 distr:  one band on    8 cores,    1 groups
 using from now: INCAR     
 vasp.5.4.4.18Apr17-6-g9f103f2a35 (build Nov 27 2019 20:08:17) complex          
  
 POSCAR found type information on POSCAR  Ti
 POSCAR found :  1 types and      24 ions
 scaLAPACK will be used

 ----------------------------------------------------------------------------- 
|                                                                             |
|           W    W    AA    RRRRR   N    N  II  N    N   GGGG   !!!           |
|           W    W   A  A   R    R  NN   N  II  NN   N  G    G  !!!           |
|           W    W  A    A  R    R  N N  N  II  N N  N  G       !!!           |
|           W WW W  AAAAAA  RRRRR   N  N N  II  N  N N  G  GGG   !            |
|           WW  WW  A    A  R   R   N   NN  II  N   NN  G    G                |
|           W    W  A    A  R    R  N    N  II  N    N   GGGG   !!!           |
|                                                                             |
|      You have enabled k-point parallelism (KPAR>1).                         |
|      This developmental code was originally  written by Paul Kent at ORNL,  |
|      and carefully double checked in Vienna.                                |
|      GW as well as linear response parallelism added by Martijn Marsman     |
|      and Georg Kresse.                                                      |
|      Carefully verify results versus KPAR=1.                                |
|      Report problems to Paul Kent and Vienna.                               |
|                                                                             |
 ----------------------------------------------------------------------------- 

 LDA part: xc-table for Pade appr. of Perdew
 POSCAR found type information on POSCAR  Ti
 POSCAR found :  1 types and      24 ions
 POSCAR, INCAR and KPOINTS ok, starting setup
 FFT: planning ...
 WAVECAR not read
 WARNING: random wavefunctions but no delay for mixing, default for NELMDL
 entering main loop
       N       E                     dE             d eps       ncg     rms          rms(c)
DAV:   1     0.329558646328E+03    0.32956E+03   -0.24763E+04  3904   0.105E+03
DAV:   2    -0.138634074269E+03   -0.46819E+03   -0.45346E+03  3904   0.247E+02
DAV:   3    -0.206861696682E+03   -0.68228E+02   -0.63656E+02  5960   0.829E+01
DAV:   4    -0.212137474037E+03   -0.52758E+01   -0.49442E+01  5920   0.236E+01
DAV:   5    -0.212401365314E+03   -0.26389E+00   -0.25184E+00  5912   0.394E+00    0.567E+01
DAV:   6    -0.271361885696E+03   -0.58961E+02   -0.10601E+03  7410   0.788E+01    0.553E+01
DAV:   7    -0.342136146274E+03   -0.70774E+02   -0.31719E+03  7772   0.126E+02    0.626E+01
DAV:   8    -0.207734843749E+03    0.13440E+03   -0.22436E+03  7355   0.101E+02    0.446E+01
DAV:   9    -0.179573330368E+03    0.28162E+02   -0.55773E+02  6436   0.103E+02    0.203E+01
DAV:  10    -0.180851934478E+03   -0.12786E+01   -0.63970E+01  6296   0.231E+01    0.174E+01
DAV:  11    -0.181568312883E+03   -0.71638E+00   -0.40799E+00  6192   0.524E+00    0.185E+01
DAV:  12    -0.180747829736E+03    0.82048E+00   -0.84050E-01  6211   0.317E+00    0.168E+01
DAV:  13    -0.179905310743E+03    0.84252E+00   -0.64730E-01  6016   0.318E+00    0.151E+01
DAV:  14    -0.178109391092E+03    0.17959E+01   -0.26303E+00  4715   0.779E+00    0.103E+01
DAV:  15    -0.177405031942E+03    0.70436E+00   -0.24075E+00  5896   0.616E+00    0.748E+00
DAV:  16    -0.177203962768E+03    0.20107E+00   -0.88017E-01  6072   0.395E+00    0.628E+00
DAV:  17    -0.177064316788E+03    0.13965E+00   -0.32227E-01  5904   0.216E+00    0.499E+00
DAV:  18    -0.176858287189E+03    0.20603E+00   -0.36617E-01  6088   0.230E+00    0.306E+00
DAV:  19    -0.176850942168E+03    0.73450E-02   -0.29937E-02  5464   0.769E-01    0.271E+00
DAV:  20    -0.176793721630E+03    0.57221E-01   -0.60432E-02  6880   0.763E-01    0.155E+00
DAV:  21    -0.176785798303E+03    0.79233E-02   -0.95522E-03  5144   0.386E-01    0.114E+00
DAV:  22    -0.176778788908E+03    0.70094E-02   -0.78529E-03  7040   0.228E-01    0.766E-01
DAV:  23    -0.176776185253E+03    0.26037E-02   -0.34775E-03  5280   0.229E-01    0.438E-01
DAV:  24    -0.176775182245E+03    0.10030E-02   -0.13219E-03  6344   0.962E-02    0.285E-01
DAV:  25    -0.176774808205E+03    0.37404E-03   -0.45775E-04  5464   0.736E-02    0.164E-01
DAV:  26    -0.176774621953E+03    0.18625E-03   -0.45907E-04  6376   0.665E-02    0.501E-02
DAV:  27    -0.176774607041E+03    0.14912E-04   -0.72883E-05  4995   0.364E-02    0.156E-02
DAV:  28    -0.176774604793E+03    0.22471E-05   -0.94581E-06  3288   0.138E-02
   1 F= -.17677460E+03 E0= -.17677440E+03  d E =-.604106E-03
Distance=2.800
 running on   16 total cores
 distrk:  each k-point on    8 cores,    2 groups
 distr:  one band on    8 cores,    1 groups
 using from now: INCAR     
 vasp.5.4.4.18Apr17-6-g9f103f2a35 (build Nov 27 2019 20:08:17) complex          
  
 POSCAR found type information on POSCAR  Ti
 POSCAR found :  1 types and      12 ions
 scaLAPACK will be used

 ----------------------------------------------------------------------------- 
|                                                                             |
|           W    W    AA    RRRRR   N    N  II  N    N   GGGG   !!!           |
|           W    W   A  A   R    R  NN   N  II  NN   N  G    G  !!!           |
|           W    W  A    A  R    R  N N  N  II  N N  N  G       !!!           |
|           W WW W  AAAAAA  RRRRR   N  N N  II  N  N N  G  GGG   !            |
|           WW  WW  A    A  R   R   N   NN  II  N   NN  G    G                |
|           W    W  A    A  R    R  N    N  II  N    N   GGGG   !!!           |
|                                                                             |
|      You have enabled k-point parallelism (KPAR>1).                         |
|      This developmental code was originally  written by Paul Kent at ORNL,  |
|      and carefully double checked in Vienna.                                |
|      GW as well as linear response parallelism added by Martijn Marsman     |
|      and Georg Kresse.                                                      |
|      Carefully verify results versus KPAR=1.                                |
|      Report problems to Paul Kent and Vienna.                               |
|                                                                             |
 ----------------------------------------------------------------------------- 

 LDA part: xc-table for Pade appr. of Perdew
 POSCAR found type information on POSCAR  Ti
 POSCAR found :  1 types and      12 ions
 POSCAR, INCAR and KPOINTS ok, starting setup
 FFT: planning ...
 WAVECAR not read
 entering main loop
       N       E                     dE             d eps       ncg     rms          rms(c)
DAV:   1     0.199949345111E+03    0.19995E+03   -0.12497E+04  1984   0.939E+02
DAV:   2    -0.690038616377E+02   -0.26895E+03   -0.25764E+03  2027   0.226E+02
DAV:   3    -0.105257597250E+03   -0.36254E+02   -0.34008E+02  3040   0.760E+01
DAV:   4    -0.107974013626E+03   -0.27164E+01   -0.25698E+01  3096   0.234E+01
DAV:   5    -0.108118832918E+03   -0.14482E+00   -0.13890E+00  3265   0.460E+00    0.427E+01
DAV:   6    -0.147416329773E+03   -0.39297E+02   -0.68749E+02  3846   0.800E+01    0.593E+01
DAV:   7    -0.100805536440E+03    0.46611E+02   -0.13326E+03  3763   0.156E+02    0.223E+01
DAV:   8    -0.927832520323E+02    0.80223E+01   -0.14742E+02  3110   0.667E+01    0.187E+01
DAV:   9    -0.913633629438E+02    0.14199E+01   -0.10216E+01  3368   0.126E+01    0.156E+01
DAV:  10    -0.907388400887E+02    0.62452E+00   -0.89765E-01  3305   0.469E+00    0.145E+01
DAV:  11    -0.898026357516E+02    0.93620E+00   -0.41356E-01  3128   0.351E+00    0.125E+01
DAV:  12    -0.870123236522E+02    0.27903E+01   -0.88580E+00  3208   0.161E+01    0.308E+00
DAV:  13    -0.872402054691E+02   -0.22788E+00   -0.10956E+00  3033   0.540E+00    0.433E+00
DAV:  14    -0.868556520332E+02    0.38455E+00   -0.21820E+00  3208   0.729E+00    0.356E-01
DAV:  15    -0.868653693292E+02   -0.97173E-02   -0.99927E-02  3193   0.134E+00    0.323E-01
DAV:  16    -0.868709281793E+02   -0.55589E-02   -0.40208E-02  3304   0.854E-01    0.512E-01
DAV:  17    -0.868681327214E+02    0.27955E-02   -0.39709E-02  3067   0.106E+00    0.116E-01
DAV:  18    -0.868680129466E+02    0.11977E-03   -0.15380E-03  2912   0.163E-01    0.116E-01
DAV:  19    -0.868680880519E+02   -0.75105E-04   -0.64356E-04  3121   0.106E-01    0.577E-02
DAV:  20    -0.868685695446E+02   -0.48149E-03   -0.42927E-04  3088   0.880E-02    0.893E-02
DAV:  21    -0.868689376923E+02   -0.36815E-03   -0.70654E-04  2728   0.148E-01    0.151E-02
DAV:  22    -0.868691665529E+02   -0.22886E-03   -0.23736E-04  3312   0.655E-02    0.335E-02
DAV:  23    -0.868692766666E+02   -0.11011E-03   -0.22639E-05  2272   0.210E-02    0.300E-02
DAV:  24    -0.868693237094E+02   -0.47043E-04   -0.61630E-05  2904   0.443E-02    0.711E-03
DAV:  25    -0.868693315462E+02   -0.78368E-05   -0.33642E-06  1737   0.997E-03    0.250E-03
DAV:  26    -0.868693383833E+02   -0.68371E-05   -0.27290E-06  1728   0.575E-03    0.185E-03
DAV:  27    -0.868693410201E+02   -0.26369E-05   -0.11709E-06  1698   0.564E-03
   1 F= -.86869341E+02 E0= -.86869820E+02  d E =0.143807E-02
 running on   16 total cores
 distrk:  each k-point on    8 cores,    2 groups
 distr:  one band on    8 cores,    1 groups
 using from now: INCAR     
 vasp.5.4.4.18Apr17-6-g9f103f2a35 (build Nov 27 2019 20:08:17) complex          
  
 POSCAR found type information on POSCAR  Ti
 POSCAR found :  1 types and      12 ions
 scaLAPACK will be used

 ----------------------------------------------------------------------------- 
|                                                                             |
|           W    W    AA    RRRRR   N    N  II  N    N   GGGG   !!!           |
|           W    W   A  A   R    R  NN   N  II  NN   N  G    G  !!!           |
|           W    W  A    A  R    R  N N  N  II  N N  N  G       !!!           |
|           W WW W  AAAAAA  RRRRR   N  N N  II  N  N N  G  GGG   !            |
|           WW  WW  A    A  R   R   N   NN  II  N   NN  G    G                |
|           W    W  A    A  R    R  N    N  II  N    N   GGGG   !!!           |
|                                                                             |
|      You have enabled k-point parallelism (KPAR>1).                         |
|      This developmental code was originally  written by Paul Kent at ORNL,  |
|      and carefully double checked in Vienna.                                |
|      GW as well as linear response parallelism added by Martijn Marsman     |
|      and Georg Kresse.                                                      |
|      Carefully verify results versus KPAR=1.                                |
|      Report problems to Paul Kent and Vienna.                               |
|                                                                             |
 ----------------------------------------------------------------------------- 

 LDA part: xc-table for Pade appr. of Perdew
 POSCAR found type information on POSCAR  Ti
 POSCAR found :  1 types and      12 ions
 POSCAR, INCAR and KPOINTS ok, starting setup
 FFT: planning ...
 WAVECAR not read
 WARNING: random wavefunctions but no delay for mixing, default for NELMDL
 entering main loop
       N       E                     dE             d eps       ncg     rms          rms(c)
DAV:   1     0.186943863745E+03    0.18694E+03   -0.12392E+04  1984   0.939E+02
DAV:   2    -0.718668414457E+02   -0.25881E+03   -0.24854E+03  2007   0.223E+02
DAV:   3    -0.108364113816E+03   -0.36497E+02   -0.33526E+02  2976   0.735E+01
DAV:   4    -0.110620602669E+03   -0.22565E+01   -0.21134E+01  2904   0.231E+01
DAV:   5    -0.110714712887E+03   -0.94110E-01   -0.92706E-01  3014   0.426E+00    0.386E+01
DAV:   6    -0.160607896524E+03   -0.49893E+02   -0.77239E+02  3912   0.783E+01    0.624E+01
DAV:   7    -0.959240690202E+02    0.64684E+02   -0.12524E+03  3800   0.137E+02    0.210E+01
DAV:   8    -0.930191646477E+02    0.29049E+01   -0.15449E+02  3100   0.647E+01    0.179E+01
DAV:   9    -0.905500781071E+02    0.24691E+01   -0.20028E+01  3370   0.199E+01    0.138E+01
DAV:  10    -0.897803948365E+02    0.76968E+00   -0.21242E+00  3173   0.555E+00    0.122E+01
DAV:  11    -0.878083570217E+02    0.19720E+01   -0.22398E+00  2771   0.873E+00    0.822E+00
DAV:  12    -0.862754457770E+02    0.15329E+01   -0.74184E+00  3234   0.124E+01    0.192E+00
DAV:  13    -0.863174870266E+02   -0.42041E-01   -0.37090E-01  3107   0.272E+00    0.187E+00
DAV:  14    -0.863148871652E+02    0.25999E-02   -0.11683E+00  3082   0.554E+00    0.201E+00
DAV:  15    -0.862708318160E+02    0.44055E-01   -0.48540E-01  2860   0.333E+00    0.652E-01
DAV:  16    -0.862650621195E+02    0.57697E-02   -0.25382E-02  2885   0.806E-01    0.241E-01
DAV:  17    -0.862736234161E+02   -0.85613E-02   -0.87919E-02  3265   0.117E+00    0.756E-01
DAV:  18    -0.862665169973E+02    0.71064E-02   -0.21463E-02  3166   0.641E-01    0.321E-01
DAV:  19    -0.862665969672E+02   -0.79970E-04   -0.26697E-02  3360   0.643E-01    0.238E-01
DAV:  20    -0.862659426884E+02    0.65428E-03   -0.31088E-03  2796   0.302E-01    0.894E-02
DAV:  21    -0.862664785626E+02   -0.53587E-03   -0.78951E-04  2898   0.152E-01    0.518E-02
DAV:  22    -0.862670775378E+02   -0.59898E-03   -0.91808E-04  3180   0.123E-01    0.482E-02
DAV:  23    -0.862671688136E+02   -0.91276E-04   -0.12783E-04  3004   0.516E-02    0.190E-02
DAV:  24    -0.862673179120E+02   -0.14910E-03   -0.83580E-05  3055   0.380E-02    0.126E-02
DAV:  25    -0.862673299648E+02   -0.12053E-04   -0.11459E-05  1798   0.192E-02    0.487E-03
DAV:  26    -0.862673376526E+02   -0.76878E-05   -0.53472E-06  1474   0.959E-03    0.343E-03
DAV:  27    -0.862673397893E+02   -0.21367E-05   -0.12619E-06  1405   0.671E-03
   1 F= -.86267340E+02 E0= -.86268493E+02  d E =0.346070E-02
 running on   16 total cores
 distrk:  each k-point on    8 cores,    2 groups
 distr:  one band on    8 cores,    1 groups
 using from now: INCAR     
 vasp.5.4.4.18Apr17-6-g9f103f2a35 (build Nov 27 2019 20:08:17) complex          
  
 POSCAR found type information on POSCAR  Ti
 POSCAR found :  1 types and      24 ions
 scaLAPACK will be used

 ----------------------------------------------------------------------------- 
|                                                                             |
[...]
   1 F= -.86267414E+02 E0= -.86268565E+02  d E =0.345293E-02
 running on   16 total cores
 distrk:  each k-point on    8 cores,    2 groups
 distr:  one band on    8 cores,    1 groups
 using from now: INCAR     
 vasp.5.4.4.18Apr17-6-g9f103f2a35 (build Nov 27 2019 20:08:17) complex          
  
 POSCAR found type information on POSCAR  Ti
 POSCAR found :  1 types and      24 ions
 scaLAPACK will be used

 ----------------------------------------------------------------------------- 
|                                                                             |
|           W    W    AA    RRRRR   N    N  II  N    N   GGGG   !!!           |
|           W    W   A  A   R    R  NN   N  II  NN   N  G    G  !!!           |
|           W    W  A    A  R    R  N N  N  II  N N  N  G       !!!           |
|           W WW W  AAAAAA  RRRRR   N  N N  II  N  N N  G  GGG   !            |
|           WW  WW  A    A  R   R   N   NN  II  N   NN  G    G                |
|           W    W  A    A  R    R  N    N  II  N    N   GGGG   !!!           |
|                                                                             |
|      You have enabled k-point parallelism (KPAR>1).                         |
|      This developmental code was originally  written by Paul Kent at ORNL,  |
|      and carefully double checked in Vienna.                                |
|      GW as well as linear response parallelism added by Martijn Marsman     |
|      and Georg Kresse.                                                      |
|      Carefully verify results versus KPAR=1.                                |
|      Report problems to Paul Kent and Vienna.                               |
|                                                                             |
 ----------------------------------------------------------------------------- 

 LDA part: xc-table for Pade appr. of Perdew
 POSCAR found type information on POSCAR  Ti
 POSCAR found :  1 types and      24 ions
 POSCAR, INCAR and KPOINTS ok, starting setup
 FFT: planning ...
 WAVECAR not read
 WARNING: random wavefunctions but no delay for mixing, default for NELMDL
 entering main loop
       N       E                     dE             d eps       ncg     rms          rms(c)
DAV:   1     0.330179175461E+03    0.33018E+03   -0.24748E+04  3904   0.104E+03
DAV:   2    -0.140307490231E+03   -0.47049E+03   -0.45503E+03  3904   0.244E+02
DAV:   3    -0.211024333388E+03   -0.70717E+02   -0.66022E+02  5960   0.841E+01
DAV:   4    -0.216269007259E+03   -0.52447E+01   -0.49269E+01  5920   0.239E+01
DAV:   5    -0.216513639852E+03   -0.24463E+00   -0.23421E+00  5856   0.393E+00    0.573E+01
DAV:   6    -0.311819873913E+03   -0.95306E+02   -0.16110E+03  7350   0.848E+01    0.627E+01
DAV:   7    -0.422096101558E+03   -0.11028E+03   -0.47307E+03  7715   0.136E+02    0.699E+01
DAV:   8    -0.191662946706E+03    0.23043E+03   -0.22620E+03  7040   0.109E+02    0.355E+01
DAV:   9    -0.185941124023E+03    0.57218E+01   -0.42868E+02  5980   0.967E+01    0.230E+01
DAV:  10    -0.182035183323E+03    0.39059E+01   -0.72650E+01  6296   0.278E+01    0.188E+01
DAV:  11    -0.180695577663E+03    0.13396E+01   -0.56010E+00  6128   0.793E+00    0.160E+01
DAV:  12    -0.179426768518E+03    0.12688E+01   -0.15240E+00  5872   0.495E+00    0.133E+01
DAV:  13    -0.177100472255E+03    0.23263E+01   -0.65078E+00  5944   0.104E+01    0.729E+00
DAV:  14    -0.176257044505E+03    0.84343E+00   -0.29493E+00  5891   0.625E+00    0.321E+00
DAV:  15    -0.176214116146E+03    0.42928E-01   -0.26448E-01  6184   0.179E+00    0.289E+00
DAV:  16    -0.176092731527E+03    0.12138E+00   -0.76222E-01  5033   0.399E+00    0.200E+00
DAV:  17    -0.176047482305E+03    0.45249E-01   -0.29196E-01  6200   0.181E+00    0.706E-01
DAV:  18    -0.176042681405E+03    0.48009E-02   -0.61735E-02  6582   0.926E-01    0.392E-01
DAV:  19    -0.176041426894E+03    0.12545E-02   -0.22272E-02  6240   0.505E-01    0.294E-01
DAV:  20    -0.176039909620E+03    0.15173E-02   -0.69109E-03  5600   0.346E-01    0.721E-02
DAV:  21    -0.176039867386E+03    0.42234E-04   -0.34854E-04  6264   0.748E-02    0.368E-02
DAV:  22    -0.176039843377E+03    0.24009E-04   -0.16997E-04  4992   0.600E-02    0.553E-03
DAV:  23    -0.176039844574E+03   -0.11973E-05   -0.10031E-05  3400   0.121E-02
   1 F= -.17603984E+03 E0= -.17603929E+03  d E =-.167231E-02
Distance=3.450
 running on   16 total cores
 distrk:  each k-point on    8 cores,    2 groups
 distr:  one band on    8 cores,    1 groups
 using from now: INCAR     
 vasp.5.4.4.18Apr17-6-g9f103f2a35 (build Nov 27 2019 20:08:17) complex          
  
 POSCAR found type information on POSCAR  Ti
 POSCAR found :  1 types and      12 ions
 scaLAPACK will be used

 ----------------------------------------------------------------------------- 
|                                                                             |
|           W    W    AA    RRRRR   N    N  II  N    N   GGGG   !!!           |
|           W    W   A  A   R    R  NN   N  II  NN   N  G    G  !!!           |
|           W    W  A    A  R    R  N N  N  II  N N  N  G       !!!           |
|           W WW W  AAAAAA  RRRRR   N  N N  II  N  N N  G  GGG   !            |
|           WW  WW  A    A  R   R   N   NN  II  N   NN  G    G                |
|           W    W  A    A  R    R  N    N  II  N    N   GGGG   !!!           |
|                                                                             |
|      You have enabled k-point parallelism (KPAR>1).                         |
|      This developmental code was originally  written by Paul Kent at ORNL,  |
|      and carefully double checked in Vienna.                                |
|      GW as well as linear response parallelism added by Martijn Marsman     |
|      and Georg Kresse.                                                      |
|      Carefully verify results versus KPAR=1.                                |
|      Report problems to Paul Kent and Vienna.                               |
|                                                                             |
 ----------------------------------------------------------------------------- 

 LDA part: xc-table for Pade appr. of Perdew
 POSCAR found type information on POSCAR  Ti
 POSCAR found :  1 types and      12 ions
 POSCAR, INCAR and KPOINTS ok, starting setup
 FFT: planning ...
 WAVECAR not read
 entering main loop
       N       E                     dE             d eps       ncg     rms          rms(c)
DAV:   1     0.200326517654E+03    0.20033E+03   -0.12383E+04  1984   0.928E+02
DAV:   2    -0.689057817937E+02   -0.26923E+03   -0.25781E+03  2034   0.226E+02
DAV:   3    -0.105368468917E+03   -0.36463E+02   -0.34257E+02  3097   0.754E+01
DAV:   4    -0.107988802859E+03   -0.26203E+01   -0.24924E+01  3112   0.228E+01
DAV:   5    -0.108118971757E+03   -0.13017E+00   -0.12685E+00  3250   0.436E+00    0.427E+01
DAV:   6    -0.146488813488E+03   -0.38370E+02   -0.67680E+02  3830   0.797E+01    0.593E+01
DAV:   7    -0.102213638653E+03    0.44275E+02   -0.13634E+03  3734   0.157E+02    0.228E+01
DAV:   8    -0.929507601445E+02    0.92629E+01   -0.14953E+02  3082   0.679E+01    0.189E+01
DAV:   9    -0.916624056807E+02    0.12884E+01   -0.10751E+01  3384   0.136E+01    0.161E+01
DAV:  10    -0.910011337069E+02    0.66127E+00   -0.95910E-01  3280   0.481E+00    0.150E+01
DAV:  11    -0.899975076415E+02    0.10036E+01   -0.43474E-01  3096   0.365E+00    0.128E+01
DAV:  12    -0.870204318260E+02    0.29771E+01   -0.93311E+00  3216   0.165E+01    0.320E+00
DAV:  13    -0.872197466592E+02   -0.19931E+00   -0.99238E-01  3069   0.514E+00    0.422E+00
DAV:  14    -0.868525874220E+02    0.36716E+00   -0.23251E+00  3240   0.748E+00    0.575E-01
DAV:  15    -0.868621835823E+02   -0.95962E-02   -0.11412E-01  3217   0.143E+00    0.293E-01
DAV:  16    -0.868699460621E+02   -0.77625E-02   -0.42980E-02  3248   0.879E-01    0.546E-01
DAV:  17    -0.868674878147E+02    0.24582E-02   -0.42422E-02  2993   0.112E+00    0.102E-01
DAV:  18    -0.868682144618E+02   -0.72665E-03   -0.17627E-03  2952   0.174E-01    0.925E-02
DAV:  19    -0.868685118894E+02   -0.29743E-03   -0.46383E-04  2681   0.832E-02    0.773E-02
DAV:  20    -0.868685454737E+02   -0.33584E-04   -0.14193E-04  3088   0.394E-02    0.722E-02
DAV:  21    -0.868686744957E+02   -0.12902E-03   -0.40268E-04  2864   0.114E-01    0.139E-02
DAV:  22    -0.868687895574E+02   -0.11506E-03   -0.11263E-04  3160   0.495E-02    0.206E-02
DAV:  23    -0.868689149964E+02   -0.12544E-03   -0.27820E-05  2400   0.285E-02    0.285E-02
DAV:  24    -0.868689667042E+02   -0.51708E-04   -0.52006E-05  2672   0.434E-02    0.711E-03
DAV:  25    -0.868689998255E+02   -0.33121E-04   -0.16504E-05  2072   0.201E-02    0.632E-03
DAV:  26    -0.868690117934E+02   -0.11968E-04   -0.26277E-06  1712   0.947E-03    0.393E-03
DAV:  27    -0.868690151008E+02   -0.33074E-05   -0.10058E-06  1712   0.423E-03
   1 F= -.86869015E+02 E0= -.86869494E+02  d E =0.143708E-02
 running on   16 total cores
 distrk:  each k-point on    8 cores,    2 groups
 distr:  one band on    8 cores,    1 groups
 using from now: INCAR     
 vasp.5.4.4.18Apr17-6-g9f103f2a35 (build Nov 27 2019 20:08:17) complex          
  
 POSCAR found type information on POSCAR  Ti
 POSCAR found :  1 types and      12 ions
 scaLAPACK will be used

 ----------------------------------------------------------------------------- 
|                                                                             |
|           W    W    AA    RRRRR   N    N  II  N    N   GGGG   !!!           |
|           W    W   A  A   R    R  NN   N  II  NN   N  G    G  !!!           |
|           W    W  A    A  R    R  N N  N  II  N N  N  G       !!!           |
|           W WW W  AAAAAA  RRRRR   N  N N  II  N  N N  G  GGG   !            |
|           WW  WW  A    A  R   R   N   NN  II  N   NN  G    G                |
|           W    W  A    A  R    R  N    N  II  N    N   GGGG   !!!           |
|                                                                             |
|      You have enabled k-point parallelism (KPAR>1).                         |
|      This developmental code was originally  written by Paul Kent at ORNL,  |
|      and carefully double checked in Vienna.                                |
|      GW as well as linear response parallelism added by Martijn Marsman     |
|      and Georg Kresse.                                                      |
|      Carefully verify results versus KPAR=1.                                |
|      Report problems to Paul Kent and Vienna.                               |
|                                                                             |
 ----------------------------------------------------------------------------- 

 LDA part: xc-table for Pade appr. of Perdew
 POSCAR found type information on POSCAR  Ti
 POSCAR found :  1 types and      12 ions
 POSCAR, INCAR and KPOINTS ok, starting setup
 FFT: planning ...
 WAVECAR not read
 WARNING: random wavefunctions but no delay for mixing, default for NELMDL
 entering main loop
       N       E                     dE             d eps       ncg     rms          rms(c)
DAV:   1     0.189656380074E+03    0.18966E+03   -0.12285E+04  1984   0.928E+02
DAV:   2    -0.729573993830E+02   -0.26261E+03   -0.25156E+03  2045   0.223E+02
DAV:   3    -0.108467665072E+03   -0.35510E+02   -0.32813E+02  3040   0.732E+01
DAV:   4    -0.110612668429E+03   -0.21450E+01   -0.20011E+01  2913   0.223E+01
DAV:   5    -0.110713799484E+03   -0.10113E+00   -0.98256E-01  3020   0.426E+00    0.386E+01
DAV:   6    -0.159242698144E+03   -0.48529E+02   -0.75774E+02  3876   0.779E+01    0.619E+01
DAV:   7    -0.969462844112E+02    0.62296E+02   -0.12775E+03  3777   0.138E+02    0.214E+01
DAV:   8    -0.931718056730E+02    0.37745E+01   -0.15642E+02  3092   0.652E+01    0.179E+01
DAV:   9    -0.907187028845E+02    0.24531E+01   -0.20008E+01  3354   0.197E+01    0.139E+01
DAV:  10    -0.899363655389E+02    0.78234E+00   -0.23189E+00  3095   0.560E+00    0.124E+01
DAV:  11    -0.875116996157E+02    0.24247E+01   -0.32714E+00  2904   0.103E+01    0.741E+00
DAV:  12    -0.862830467806E+02    0.12287E+01   -0.56712E+00  3249   0.107E+01    0.190E+00
DAV:  13    -0.863203800579E+02   -0.37333E-01   -0.32444E-01  3075   0.252E+00    0.194E+00
DAV:  14    -0.863198222187E+02    0.55784E-03   -0.13228E+00  3075   0.607E+00    0.211E+00
DAV:  15    -0.862733360910E+02    0.46486E-01   -0.52480E-01  2832   0.358E+00    0.803E-01
DAV:  16    -0.862651783706E+02    0.81577E-02   -0.32393E-02  2889   0.942E-01    0.309E-01
DAV:  17    -0.862751747380E+02   -0.99964E-02   -0.10701E-01  3296   0.127E+00    0.775E-01
DAV:  18    -0.862681649449E+02    0.70098E-02   -0.20569E-02  3177   0.639E-01    0.371E-01
DAV:  19    -0.862673677859E+02    0.79716E-03   -0.29083E-02  3320   0.666E-01    0.227E-01
DAV:  20    -0.862664856262E+02    0.88216E-03   -0.30710E-03  2846   0.294E-01    0.808E-02
DAV:  21    -0.862666406106E+02   -0.15498E-03   -0.63771E-04  2768   0.155E-01    0.351E-02
DAV:  22    -0.862669502200E+02   -0.30961E-03   -0.26235E-04  2664   0.869E-02    0.235E-02
DAV:  23    -0.862671337993E+02   -0.18358E-03   -0.49729E-05  2857   0.265E-02    0.198E-02
DAV:  24    -0.862673061678E+02   -0.17237E-03   -0.47495E-05  2632   0.354E-02    0.118E-02
DAV:  25    -0.862673714020E+02   -0.65234E-04   -0.21463E-05  2339   0.224E-02    0.560E-03
DAV:  26    -0.862674108827E+02   -0.39481E-04   -0.63429E-06  1460   0.155E-02    0.517E-03
DAV:  27    -0.862674176760E+02   -0.67933E-05   -0.21660E-06  1454   0.684E-03    0.226E-03
DAV:  28    -0.862674192949E+02   -0.16189E-05   -0.67873E-07  1426   0.556E-03
   1 F= -.86267419E+02 E0= -.86268572E+02  d E =0.345785E-02
 running on   16 total cores
 distrk:  each k-point on    8 cores,    2 groups
 distr:  one band on    8 cores,    1 groups
 using from now: INCAR     
 vasp.5.4.4.18Apr17-6-g9f103f2a35 (build Nov 27 2019 20:08:17) complex          
  
 POSCAR found type information on POSCAR  Ti
 POSCAR found :  1 types and      24 ions
 scaLAPACK will be used

 ----------------------------------------------------------------------------- 
|                                                                             |
|           W    W    AA    RRRRR   N    N  II  N    N   GGGG   !!!           |
|           W    W   A  A   R    R  NN   N  II  NN   N  G    G  !!!           |
|           W    W  A    A  R    R  N N  N  II  N N  N  G       !!!           |
|           W WW W  AAAAAA  RRRRR   N  N N  II  N  N N  G  GGG   !            |
|           WW  WW  A    A  R   R   N   NN  II  N   NN  G    G                |
|           W    W  A    A  R    R  N    N  II  N    N   GGGG   !!!           |
|                                                                             |
|      You have enabled k-point parallelism (KPAR>1).                         |
|      This developmental code was originally  written by Paul Kent at ORNL,  |
|      and carefully double checked in Vienna.                                |
|      GW as well as linear response parallelism added by Martijn Marsman     |
|      and Georg Kresse.                                                      |
|      Carefully verify results versus KPAR=1.                                |
|      Report problems to Paul Kent and Vienna.                               |
|                                                                             |
 ----------------------------------------------------------------------------- 

 LDA part: xc-table for Pade appr. of Perdew
 POSCAR found type information on POSCAR  Ti
 POSCAR found :  1 types and      24 ions
 POSCAR, INCAR and KPOINTS ok, starting setup
 FFT: planning ...
 WAVECAR not read
 WARNING: random wavefunctions but no delay for mixing, default for NELMDL
 entering main loop
       N       E                     dE             d eps       ncg     rms          rms(c)
DAV:   1     0.331323391075E+03    0.33132E+03   -0.24794E+04  3904   0.104E+03
DAV:   2    -0.140389043616E+03   -0.47171E+03   -0.45639E+03  3904   0.244E+02
DAV:   3    -0.211124428719E+03   -0.70735E+02   -0.66059E+02  5936   0.840E+01
DAV:   4    -0.216413293749E+03   -0.52889E+01   -0.49587E+01  5936   0.239E+01
DAV:   5    -0.216672837210E+03   -0.25954E+00   -0.24837E+00  5920   0.394E+00    0.573E+01
DAV:   6    -0.316609336234E+03   -0.99936E+02   -0.16742E+03  7335   0.852E+01    0.635E+01
DAV:   7    -0.427898784063E+03   -0.11129E+03   -0.48642E+03  7725   0.134E+02    0.708E+01
DAV:   8    -0.188784921099E+03    0.23911E+03   -0.22270E+03  6987   0.112E+02    0.345E+01
DAV:   9    -0.186964227601E+03    0.18207E+01   -0.42244E+02  5980   0.958E+01    0.237E+01
DAV:  10    -0.182208429484E+03    0.47558E+01   -0.77460E+01  6352   0.290E+01    0.190E+01
DAV:  11    -0.180595001186E+03    0.16134E+01   -0.62237E+00  6112   0.860E+00    0.158E+01
DAV:  12    -0.179508402860E+03    0.10866E+01   -0.12686E+00  5904   0.438E+00    0.135E+01
DAV:  13    -0.177016097614E+03    0.24923E+01   -0.64573E+00  5795   0.107E+01    0.727E+00
DAV:  14    -0.176171655973E+03    0.84444E+00   -0.33025E+00  6035   0.659E+00    0.323E+00
DAV:  15    -0.176116181578E+03    0.55474E-01   -0.27505E-01  6208   0.184E+00    0.280E+00
DAV:  16    -0.176011339484E+03    0.10484E+00   -0.57887E-01  5038   0.346E+00    0.198E+00
DAV:  17    -0.175958862710E+03    0.52477E-01   -0.29332E-01  6264   0.189E+00    0.624E-01
DAV:  18    -0.175956892492E+03    0.19702E-02   -0.66145E-02  6243   0.956E-01    0.504E-01
DAV:  19    -0.175954904788E+03    0.19877E-02   -0.23187E-02  6280   0.512E-01    0.396E-01
DAV:  20    -0.175952275177E+03    0.26296E-02   -0.11062E-02  5515   0.456E-01    0.938E-02
DAV:  21    -0.175952211749E+03    0.63428E-04   -0.51380E-04  6272   0.887E-02    0.600E-02
DAV:  22    -0.175952148762E+03    0.62987E-04   -0.37419E-04  5328   0.855E-02    0.145E-02
DAV:  23    -0.175952149671E+03   -0.90921E-06   -0.31708E-05  4680   0.210E-02
   1 F= -.17595215E+03 E0= -.17595181E+03  d E =-.101925E-02

DISTANCE=2.550
E_alpha=  -86.868817  E_beta=  -86.267288  E_total= -176.671849 
W_seq=-3.535744

DISTANCE=2.600
E_alpha=  -86.869486  E_beta=  -86.267492  E_total= -176.718834 
W_seq=-3.581856

DISTANCE=2.650
E_alpha=  -86.870100  E_beta=  -86.267486  E_total= -176.751133 
W_seq=-3.613547

DISTANCE=2.700
E_alpha=  -86.870260  E_beta=  -86.267395  E_total= -176.770125 
W_seq=-3.632470

DISTANCE=2.750
E_alpha=  -86.868839  E_beta=  -86.267287  E_total= -176.774605 
W_seq=-3.638479

DISTANCE=2.800
E_alpha=  -86.869341  E_beta=  -86.267340  E_total= -176.768698 
W_seq=-3.632017

DISTANCE=2.850
E_alpha=  -86.870031  E_beta=  -86.267719  E_total= -176.750944 
W_seq=-3.613194

DISTANCE=2.900
E_alpha=  -86.870296  E_beta=  -86.267462  E_total= -176.721149 
W_seq=-3.583391

DISTANCE=2.950
E_alpha=  -86.870056  E_beta=  -86.267571  E_total= -176.681465 
W_seq=-3.543838

DISTANCE=3.000
E_alpha=  -86.870009  E_beta=  -86.267280  E_total= -176.632419 
W_seq=-3.495130

DISTANCE=3.050
E_alpha=  -86.869781  E_beta=  -86.267149  E_total= -176.575392 
W_seq=-3.438462

DISTANCE=3.100
E_alpha=  -86.869644  E_beta=  -86.267361  E_total= -176.512193 
W_seq=-3.375188

DISTANCE=3.150
E_alpha=  -86.869553  E_beta=  -86.266607  E_total= -176.442159 
W_seq=-3.305999

DISTANCE=3.200
E_alpha=  -86.869986  E_beta=  -86.264659  E_total= -176.366466 
W_seq=-3.231821

DISTANCE=3.250
E_alpha=  -86.869966  E_beta=  -86.266287  E_total= -176.290204 
W_seq=-3.153951

DISTANCE=3.300
E_alpha=  -86.870151  E_beta=  -86.267448  E_total= -176.210245 
W_seq=-3.072646

DISTANCE=3.350
E_alpha=  -86.869851  E_beta=  -86.267401  E_total= -176.126164 
W_seq=-2.988912

DISTANCE=3.400
E_alpha=  -86.869326  E_beta=  -86.267414  E_total= -176.039845 
W_seq=-2.903105

DISTANCE=3.450
E_alpha=  -86.869015  E_beta=  -86.267419  E_total= -175.952150 
W_seq=-2.815716

