Distance=0.500
 running on   16 total cores
 distrk:  each k-point on    8 cores,    2 groups
 distr:  one band on    4 cores,    2 groups
 using from now: INCAR     
 vasp.5.4.4.18Apr17-6-g9f103f2a35 (build Nov 27 2019 20:08:17) complex          
  
 POSCAR found type information on POSCAR  Ti
 POSCAR found :  1 types and      48 ions
 scaLAPACK will be used

 ----------------------------------------------------------------------------- 
|                                                                             |
|           W    W    AA    RRRRR   N    N  II  N    N   GGGG   !!!           |
|           W    W   A  A   R    R  NN   N  II  NN   N  G    G  !!!           |
|           W    W  A    A  R    R  N N  N  II  N N  N  G       !!!           |
|           W WW W  AAAAAA  RRRRR   N  N N  II  N  N N  G  GGG   !            |
|           WW  WW  A    A  R   R   N   NN  II  N   NN  G    G                |
|           W    W  A    A  R    R  N    N  II  N    N   GGGG   !!!           |
|                                                                             |
|      You have enabled k-point parallelism (KPAR>1).                         |
|      This developmental code was originally  written by Paul Kent at ORNL,  |
|      and carefully double checked in Vienna.                                |
|      GW as well as linear response parallelism added by Martijn Marsman     |
|      and Georg Kresse.                                                      |
|      Carefully verify results versus KPAR=1.                                |
|      Report problems to Paul Kent and Vienna.                               |
|                                                                             |
 ----------------------------------------------------------------------------- 

 LDA part: xc-table for Pade appr. of Perdew
 POSCAR found type information on POSCAR  Ti
 POSCAR found :  1 types and      48 ions
 POSCAR, INCAR and KPOINTS ok, starting setup
 FFT: planning ...
 WAVECAR not read
 WARNING: random wavefunctions but no delay for mixing, default for NELMDL
 entering main loop
       N       E                     dE             d eps       ncg     rms          rms(c)
DAV:   1     0.840909731093E+03    0.84091E+03   -0.54175E+04  2196   0.112E+03
DAV:   2    -0.251079781046E+03   -0.10920E+04   -0.10529E+04  2196   0.247E+02
DAV:   3    -0.417098063737E+03   -0.16602E+03   -0.15659E+03  3384   0.867E+01
DAV:   4    -0.430105064803E+03   -0.13007E+02   -0.12280E+02  3464   0.258E+01
DAV:   5    -0.430917978996E+03   -0.81291E+00   -0.76959E+00  3624   0.504E+00    0.785E+01
DAV:   6    -0.575357570288E+03   -0.14444E+03   -0.25748E+03  4230   0.783E+01    0.116E+02
DAV:   7    -0.373697782864E+03    0.20166E+03   -0.42079E+03  4014   0.151E+02    0.381E+01
DAV:   8    -0.363995928600E+03    0.97019E+01   -0.48315E+02  3464   0.575E+01    0.316E+01
DAV:   9    -0.357754675842E+03    0.62413E+01   -0.39713E+01  3664   0.126E+01    0.249E+01
DAV:  10    -0.356907861803E+03    0.84681E+00   -0.26317E+00  3544   0.316E+00    0.238E+01
DAV:  11    -0.358037038472E+03   -0.11292E+01   -0.34415E-01  3320   0.138E+00    0.249E+01
DAV:  12    -0.344837774763E+03    0.13199E+02   -0.67550E+01  3232   0.237E+01    0.672E+00
DAV:  13    -0.344957525422E+03   -0.11975E+00   -0.43486E+00  3120   0.543E+00    0.432E+00
DAV:  14    -0.344738439545E+03    0.21909E+00   -0.25287E+00  3496   0.361E+00    0.238E+00
DAV:  15    -0.344728467323E+03    0.99722E-02   -0.42138E-01  3480   0.156E+00    0.753E-01
DAV:  16    -0.344738291093E+03   -0.98238E-02   -0.51449E-02  3096   0.628E-01    0.684E-01
DAV:  17    -0.344747521366E+03   -0.92303E-02   -0.62775E-02  3320   0.620E-01    0.255E-01
DAV:  18    -0.344754512649E+03   -0.69913E-02   -0.75647E-03  2968   0.245E-01    0.201E-01
DAV:  19    -0.344760699146E+03   -0.61865E-02   -0.81583E-03  2672   0.230E-01    0.146E-01
DAV:  20    -0.344761216412E+03   -0.51727E-03   -0.23101E-03  3248   0.109E-01    0.682E-02
DAV:  21    -0.344761408648E+03   -0.19224E-03   -0.94786E-04  3288   0.860E-02    0.439E-02
DAV:  22    -0.344761471868E+03   -0.63220E-04   -0.24238E-04  2808   0.436E-02    0.161E-02
DAV:  23    -0.344761482581E+03   -0.10714E-04   -0.37367E-05  2752   0.123E-02    0.110E-02
DAV:  24    -0.344761484061E+03   -0.14796E-05   -0.90067E-06  1824   0.892E-03
   1 F= -.34476148E+03 E0= -.34470631E+03  d E =-.110351E+00
 running on   16 total cores
 distrk:  each k-point on    8 cores,    2 groups
 distr:  one band on    4 cores,    2 groups
 using from now: INCAR     
 vasp.5.4.4.18Apr17-6-g9f103f2a35 (build Nov 27 2019 20:08:17) complex          
  
 POSCAR found type information on POSCAR  Ti
 POSCAR found :  1 types and      54 ions
 scaLAPACK will be used

 ----------------------------------------------------------------------------- 
|                                                                             |
|           W    W    AA    RRRRR   N    N  II  N    N   GGGG   !!!           |
|           W    W   A  A   R    R  NN   N  II  NN   N  G    G  !!!           |
|           W    W  A    A  R    R  N N  N  II  N N  N  G       !!!           |
|           W WW W  AAAAAA  RRRRR   N  N N  II  N  N N  G  GGG   !            |
|           WW  WW  A    A  R   R   N   NN  II  N   NN  G    G                |
|           W    W  A    A  R    R  N    N  II  N    N   GGGG   !!!           |
|                                                                             |
|      You have enabled k-point parallelism (KPAR>1).                         |
|      This developmental code was originally  written by Paul Kent at ORNL,  |
|      and carefully double checked in Vienna.                                |
|      GW as well as linear response parallelism added by Martijn Marsman     |
|      and Georg Kresse.                                                      |
|      Carefully verify results versus KPAR=1.                                |
|      Report problems to Paul Kent and Vienna.                               |
|                                                                             |
 ----------------------------------------------------------------------------- 

 LDA part: xc-table for Pade appr. of Perdew
 POSCAR found type information on POSCAR  Ti
 POSCAR found :  1 types and      54 ions
 POSCAR, INCAR and KPOINTS ok, starting setup
 FFT: planning ...
 WAVECAR not read
 WARNING: random wavefunctions but no delay for mixing, default for NELMDL
 entering main loop
       N       E                     dE             d eps       ncg     rms          rms(c)
DAV:   1     0.104644557867E+04    0.10464E+04   -0.62530E+04  1632   0.116E+03
DAV:   2    -0.285408203777E+03   -0.13319E+04   -0.12839E+04  1632   0.258E+02
DAV:   3    -0.487021333609E+03   -0.20161E+03   -0.18705E+03  2320   0.949E+01
DAV:   4    -0.501379902317E+03   -0.14359E+02   -0.13316E+02  2400   0.290E+01
DAV:   5    -0.502304040718E+03   -0.92414E+00   -0.86432E+00  2696   0.530E+00    0.979E+01
DAV:   6    -0.798985277290E+03   -0.29668E+03   -0.44337E+03  3064   0.959E+01    0.133E+02
DAV:   7    -0.424138980129E+03    0.37485E+03   -0.61768E+03  3016   0.161E+02    0.424E+01
DAV:   8    -0.420023803981E+03    0.41152E+01   -0.69594E+02  2424   0.729E+01    0.419E+01
DAV:   9    -0.411450595565E+03    0.85732E+01   -0.48130E+01  2752   0.145E+01    0.334E+01
DAV:  10    -0.413599859183E+03   -0.21493E+01   -0.37050E+00  2600   0.365E+00    0.352E+01
DAV:  11    -0.400733066508E+03    0.12867E+02   -0.17710E+01  2432   0.112E+01    0.206E+01
DAV:  12    -0.396346620035E+03    0.43864E+01   -0.66838E+00  2432   0.706E+00    0.123E+01
DAV:  13    -0.393871760624E+03    0.24749E+01   -0.11191E+01  2368   0.938E+00    0.210E+00
DAV:  14    -0.394105491913E+03   -0.23373E+00   -0.33443E+00  2424   0.406E+00    0.401E+00
DAV:  15    -0.393876866530E+03    0.22863E+00   -0.54494E-01  2432   0.189E+00    0.215E+00
DAV:  16    -0.393864823016E+03    0.12044E-01   -0.12063E+00  2552   0.242E+00    0.177E+00
DAV:  17    -0.393862512415E+03    0.23106E-02   -0.78182E-02  2352   0.758E-01    0.113E+00
DAV:  18    -0.393858608468E+03    0.39039E-02   -0.26465E-01  2488   0.127E+00    0.651E-01
DAV:  19    -0.393864812813E+03   -0.62043E-02   -0.11601E-02  1944   0.235E-01    0.478E-01
DAV:  20    -0.393862237590E+03    0.25752E-02   -0.15035E-02  2408   0.312E-01    0.863E-02
DAV:  21    -0.393862859415E+03   -0.62182E-03   -0.40666E-03  2552   0.131E-01    0.116E-01
DAV:  22    -0.393862697592E+03    0.16182E-03   -0.88357E-04  2448   0.749E-02    0.359E-02
DAV:  23    -0.393862692008E+03    0.55844E-05   -0.19174E-04  2672   0.326E-02    0.107E-02
DAV:  24    -0.393862695415E+03   -0.34076E-05   -0.13205E-05  1400   0.128E-02
   1 F= -.39386270E+03 E0= -.39377568E+03  d E =-.174024E+00
 running on   16 total cores
 distrk:  each k-point on    8 cores,    2 groups
 distr:  one band on    4 cores,    2 groups
 using from now: INCAR     
 vasp.5.4.4.18Apr17-6-g9f103f2a35 (build Nov 27 2019 20:08:17) complex          
  
 POSCAR found type information on POSCAR  Ti
 POSCAR found :  1 types and     102 ions
 scaLAPACK will be used

 ----------------------------------------------------------------------------- 
|                                                                             |
|           W    W    AA    RRRRR   N    N  II  N    N   GGGG   !!!           |
|           W    W   A  A   R    R  NN   N  II  NN   N  G    G  !!!           |
|           W    W  A    A  R    R  N N  N  II  N N  N  G       !!!           |
|           W WW W  AAAAAA  RRRRR   N  N N  II  N  N N  G  GGG   !            |
|           WW  WW  A    A  R   R   N   NN  II  N   NN  G    G                |
|           W    W  A    A  R    R  N    N  II  N    N   GGGG   !!!           |
|                                                                             |
|      You have enabled k-point parallelism (KPAR>1).                         |
|      This developmental code was originally  written by Paul Kent at ORNL,  |
|      and carefully double checked in Vienna.                                |
|      GW as well as linear response parallelism added by Martijn Marsman     |
|      and Georg Kresse.                                                      |
|      Carefully verify results versus KPAR=1.                                |
|      Report problems to Paul Kent and Vienna.                               |
|                                                                             |
 ----------------------------------------------------------------------------- 

 LDA part: xc-table for Pade appr. of Perdew
 POSCAR found type information on POSCAR  Ti
 POSCAR found :  1 types and     102 ions

 ----------------------------------------------------------------------------- 
|                                                                             |
|           W    W    AA    RRRRR   N    N  II  N    N   GGGG   !!!           |
|           W    W   A  A   R    R  NN   N  II  NN   N  G    G  !!!           |
|           W    W  A    A  R    R  N N  N  II  N N  N  G       !!!           |
|           W WW W  AAAAAA  RRRRR   N  N N  II  N  N N  G  GGG   !            |
|           WW  WW  A    A  R   R   N   NN  II  N   NN  G    G                |
|           W    W  A    A  R    R  N    N  II  N    N   GGGG   !!!           |
|                                                                             |
|      The distance between some ions is very small                           |
|      please check the nearest neigbor list in the OUTCAR file               |
|          I HOPE YOU KNOW, WHAT YOU ARE  DOING                               |
|                                                                             |
 ----------------------------------------------------------------------------- 

 POSCAR, INCAR and KPOINTS ok, starting setup
 FFT: planning ...
 WAVECAR not read
 WARNING: random wavefunctions but no delay for mixing, default for NELMDL
 entering main loop
       N       E                     dE             d eps       ncg     rms          rms(c)
DAV:   1     0.227511873219E+04    0.22751E+04   -0.12238E+05  6656   0.129E+03
DAV:   2    -0.386406187591E+03   -0.26615E+04   -0.25888E+04  6656   0.313E+02
DAV:   3    -0.737658528190E+03   -0.35125E+03   -0.32995E+03  9504   0.118E+02
DAV:   4    -0.766957131455E+03   -0.29299E+02   -0.27506E+02  9512   0.312E+01
DAV:   5    -0.768874959508E+03   -0.19178E+01   -0.18404E+01 10104   0.662E+00    0.176E+02
DAV:   6    -0.170736341097E+04   -0.93849E+03   -0.28151E+04 10880   0.462E+02    0.142E+02
DAV:   7    -0.726979731410E+03    0.98038E+03   -0.60867E+03  7656   0.232E+02    0.108E+02
DAV:   8    -0.518818358525E+03    0.20816E+03   -0.14050E+03 11992   0.101E+02    0.908E+01
DAV:   9    -0.506942118724E+03    0.11876E+02   -0.22034E+02 11224   0.316E+01    0.977E+01
DAV:  10    -0.558658968022E+03   -0.51717E+02   -0.72693E+01 12024   0.207E+01    0.113E+02
DAV:  11    -0.562786609667E+03   -0.41276E+01   -0.13087E+01 11696   0.737E+00    0.112E+02
DAV:  12    -0.530170563114E+03    0.32616E+02   -0.42786E+01 12424   0.203E+01    0.101E+02
DAV:  13    -0.397518616830E+03    0.13265E+03   -0.29947E+02 12104   0.387E+01    0.513E+01
DAV:  14    -0.407275074025E+03   -0.97565E+01   -0.78589E+02 12480   0.644E+01    0.948E+01
DAV:  15    -0.421821851938E+03   -0.14547E+02   -0.40804E+02 11016   0.404E+01    0.107E+02
DAV:  16    -0.372871678837E+03    0.48950E+02   -0.29272E+02  9976   0.436E+01    0.702E+01
DAV:  17    -0.368154092039E+03    0.47176E+01   -0.11885E+02 11280   0.254E+01    0.496E+01
DAV:  18    -0.368031338810E+03    0.12275E+00   -0.11923E+01 10512   0.736E+00    0.464E+01
DAV:  19    -0.366751299617E+03    0.12800E+01   -0.42996E+00 10944   0.507E+00    0.450E+01
DAV:  20    -0.365259556222E+03    0.14917E+01   -0.10695E+01 10976   0.738E+00    0.396E+01
DAV:  21    -0.364721519823E+03    0.53804E+00   -0.21532E+01 10864   0.122E+01    0.266E+01
DAV:  22    -0.365110542966E+03   -0.38902E+00   -0.99240E+00 11000   0.773E+00    0.208E+01
DAV:  23    -0.364453270005E+03    0.65727E+00   -0.15699E+00  9488   0.313E+00    0.187E+01
DAV:  24    -0.363107871820E+03    0.13454E+01   -0.19437E+00 10712   0.333E+00    0.148E+01
DAV:  25    -0.361711757101E+03    0.13961E+01   -0.37416E+00 10936   0.446E+00    0.856E+00
DAV:  26    -0.361365338965E+03    0.34642E+00   -0.10255E+00 11160   0.236E+00    0.526E+00
DAV:  27    -0.361243338682E+03    0.12200E+00   -0.68374E-01 10704   0.191E+00    0.373E+00
DAV:  28    -0.361202274902E+03    0.41064E-01   -0.36657E-01 11160   0.141E+00    0.308E+00
DAV:  29    -0.361166621373E+03    0.35654E-01   -0.17741E-01 10344   0.936E-01    0.268E+00
DAV:  30    -0.361146303986E+03    0.20317E-01   -0.88705E-02 10312   0.687E-01    0.251E+00
DAV:  31    -0.361138488141E+03    0.78158E-02   -0.51473E-02 10192   0.533E-01    0.232E+00
DAV:  32    -0.361130034669E+03    0.84535E-02   -0.29465E-02 10360   0.383E-01    0.204E+00
DAV:  33    -0.361117865762E+03    0.12169E-01   -0.38522E-02 10544   0.439E-01    0.141E+00
DAV:  34    -0.361107279526E+03    0.10586E-01   -0.34221E-02 10960   0.407E-01    0.805E-01
DAV:  35    -0.361104749709E+03    0.25298E-02   -0.16561E-02 10704   0.283E-01    0.483E-01
DAV:  36    -0.361103574167E+03    0.11755E-02   -0.83131E-03 11296   0.201E-01    0.245E-01
DAV:  37    -0.361103589091E+03   -0.14924E-04   -0.14491E-03  9848   0.934E-02    0.260E-01
DAV:  38    -0.361103544221E+03    0.44870E-04   -0.68583E-04 10928   0.639E-02    0.202E-01
DAV:  39    -0.361103462093E+03    0.82127E-04   -0.70323E-04 10232   0.555E-02    0.125E-01
DAV:  40    -0.361103485340E+03   -0.23247E-04   -0.73660E-04 10904   0.638E-02    0.116E-01
DAV:  41    -0.361103500515E+03   -0.15175E-04   -0.19406E-04 11208   0.304E-02    0.112E-01
DAV:  42    -0.361103476246E+03    0.24269E-04   -0.22639E-05  6640   0.137E-02    0.999E-02
DAV:  43    -0.361103442786E+03    0.33460E-04   -0.35373E-05  8304   0.131E-02    0.774E-02
DAV:  44    -0.361103412598E+03    0.30188E-04   -0.53431E-05  9800   0.152E-02    0.533E-02
DAV:  45    -0.361103400361E+03    0.12237E-04   -0.31646E-05  8056   0.123E-02    0.408E-02
DAV:  46    -0.361103395698E+03    0.46628E-05   -0.59961E-06  3952   0.664E-03
   1 F= -.36110340E+03 E0= -.36100405E+03  d E =-.198688E+00
Distance=1.000
 running on   16 total cores
 distrk:  each k-point on    8 cores,    2 groups
 distr:  one band on    4 cores,    2 groups
 using from now: INCAR     
 vasp.5.4.4.18Apr17-6-g9f103f2a35 (build Nov 27 2019 20:08:17) complex          
  
 POSCAR found type information on POSCAR  Ti
 POSCAR found :  1 types and      48 ions
 scaLAPACK will be used

 ----------------------------------------------------------------------------- 
|                                                                             |
|           W    W    AA    RRRRR   N    N  II  N    N   GGGG   !!!           |
|           W    W   A  A   R    R  NN   N  II  NN   N  G    G  !!!           |
|           W    W  A    A  R    R  N N  N  II  N N  N  G       !!!           |
|           W WW W  AAAAAA  RRRRR   N  N N  II  N  N N  G  GGG   !            |
|           WW  WW  A    A  R   R   N   NN  II  N   NN  G    G                |
|           W    W  A    A  R    R  N    N  II  N    N   GGGG   !!!           |
|                                                                             |
|      You have enabled k-point parallelism (KPAR>1).                         |
|      This developmental code was originally  written by Paul Kent at ORNL,  |
|      and carefully double checked in Vienna.                                |
|      GW as well as linear response parallelism added by Martijn Marsman     |
|      and Georg Kresse.                                                      |
|      Carefully verify results versus KPAR=1.                                |
|      Report problems to Paul Kent and Vienna.                               |
|                                                                             |
 ----------------------------------------------------------------------------- 

 LDA part: xc-table for Pade appr. of Perdew
 POSCAR found type information on POSCAR  Ti
 POSCAR found :  1 types and      48 ions
 POSCAR, INCAR and KPOINTS ok, starting setup
 FFT: planning ...
 WAVECAR not read
 entering main loop
       N       E                     dE             d eps       ncg     rms          rms(c)
DAV:   1     0.853573573977E+03    0.85357E+03   -0.54070E+04  2196   0.112E+03
DAV:   2    -0.249774334126E+03   -0.11033E+04   -0.10626E+04  2196   0.245E+02
DAV:   3    -0.416975506931E+03   -0.16720E+03   -0.15813E+03  3432   0.858E+01
DAV:   4    -0.430047428864E+03   -0.13072E+02   -0.12315E+02  3440   0.260E+01
DAV:   5    -0.430916949647E+03   -0.86952E+00   -0.82543E+00  3648   0.530E+00    0.784E+01
DAV:   6    -0.573757591059E+03   -0.14284E+03   -0.25601E+03  4238   0.781E+01    0.116E+02
DAV:   7    -0.376580067825E+03    0.19718E+03   -0.43002E+03  4006   0.152E+02    0.388E+01
DAV:   8    -0.364093913696E+03    0.12486E+02   -0.49046E+02  3416   0.585E+01    0.316E+01
DAV:   9    -0.357905066235E+03    0.61888E+01   -0.39543E+01  3688   0.120E+01    0.250E+01
DAV:  10    -0.357377564891E+03    0.52750E+00   -0.23839E+00  3616   0.296E+00    0.243E+01
DAV:  11    -0.358798068155E+03   -0.14205E+01   -0.41394E-01  3280   0.168E+00    0.256E+01
DAV:  12    -0.344843231011E+03    0.13955E+02   -0.74003E+01  3176   0.252E+01    0.764E+00
DAV:  13    -0.344941157544E+03   -0.97927E-01   -0.44209E+00  3048   0.542E+00    0.486E+00
DAV:  14    -0.344757463313E+03    0.18369E+00   -0.25575E+00  3584   0.347E+00    0.280E+00
DAV:  15    -0.344726046447E+03    0.31417E-01   -0.52406E-01  3408   0.189E+00    0.668E-01
DAV:  16    -0.344734668538E+03   -0.86221E-02   -0.35993E-02  3200   0.440E-01    0.721E-01
DAV:  17    -0.344740463482E+03   -0.57949E-02   -0.81953E-02  3272   0.754E-01    0.358E-01
DAV:  18    -0.344746512105E+03   -0.60486E-02   -0.16294E-02  3312   0.304E-01    0.195E-01
DAV:  19    -0.344754139096E+03   -0.76270E-02   -0.49493E-03  2568   0.162E-01    0.133E-01
DAV:  20    -0.344755577068E+03   -0.14380E-02   -0.19842E-03  3360   0.104E-01    0.661E-02
DAV:  21    -0.344756413006E+03   -0.83594E-03   -0.16736E-03  3008   0.113E-01    0.671E-02
DAV:  22    -0.344756405674E+03    0.73319E-05   -0.58662E-04  3096   0.673E-02    0.201E-02
DAV:  23    -0.344756414551E+03   -0.88776E-05   -0.45992E-05  2696   0.169E-02    0.111E-02
DAV:  24    -0.344756417736E+03   -0.31851E-05   -0.95904E-06  1920   0.852E-03
   1 F= -.34475642E+03 E0= -.34470137E+03  d E =-.110101E+00
 running on   16 total cores
 distrk:  each k-point on    8 cores,    2 groups
 distr:  one band on    4 cores,    2 groups
 using from now: INCAR     
 vasp.5.4.4.18Apr17-6-g9f103f2a35 (build Nov 27 2019 20:08:17) complex          
  
 POSCAR found type information on POSCAR  Ti
 POSCAR found :  1 types and      54 ions
 scaLAPACK will be used

 ----------------------------------------------------------------------------- 
|                                                                             |
|           W    W    AA    RRRRR   N    N  II  N    N   GGGG   !!!           |
|           W    W   A  A   R    R  NN   N  II  NN   N  G    G  !!!           |
|           W    W  A    A  R    R  N N  N  II  N N  N  G       !!!           |
|           W WW W  AAAAAA  RRRRR   N  N N  II  N  N N  G  GGG   !            |
|           WW  WW  A    A  R   R   N   NN  II  N   NN  G    G                |
|           W    W  A    A  R    R  N    N  II  N    N   GGGG   !!!           |
|                                                                             |
|      You have enabled k-point parallelism (KPAR>1).                         |
|      This developmental code was originally  written by Paul Kent at ORNL,  |
|      and carefully double checked in Vienna.                                |
|      GW as well as linear response parallelism added by Martijn Marsman     |
|      and Georg Kresse.                                                      |
|      Carefully verify results versus KPAR=1.                                |
|      Report problems to Paul Kent and Vienna.                               |
|                                                                             |
 ----------------------------------------------------------------------------- 

 LDA part: xc-table for Pade appr. of Perdew
 POSCAR found type information on POSCAR  Ti
 POSCAR found :  1 types and      54 ions
 POSCAR, INCAR and KPOINTS ok, starting setup
 FFT: planning ...
 WAVECAR not read
 WARNING: random wavefunctions but no delay for mixing, default for NELMDL
 entering main loop
       N       E                     dE             d eps       ncg     rms          rms(c)
DAV:   1     0.106377948678E+04    0.10638E+04   -0.62501E+04  1632   0.115E+03
DAV:   2    -0.286716134575E+03   -0.13505E+04   -0.13012E+04  1632   0.257E+02
DAV:   3    -0.486608230359E+03   -0.19989E+03   -0.18579E+03  2352   0.935E+01
DAV:   4    -0.501283543106E+03   -0.14675E+02   -0.13460E+02  2408   0.289E+01
DAV:   5    -0.502311707040E+03   -0.10282E+01   -0.96675E+00  2728   0.563E+00    0.979E+01
DAV:   6    -0.797506506842E+03   -0.29519E+03   -0.44176E+03  3072   0.957E+01    0.133E+02
DAV:   7    -0.427747861091E+03    0.36976E+03   -0.63350E+03  3016   0.163E+02    0.431E+01
DAV:   8    -0.420510458783E+03    0.72374E+01   -0.71218E+02  2400   0.744E+01    0.424E+01
DAV:   9    -0.411901282594E+03    0.86092E+01   -0.53024E+01  2784   0.147E+01    0.337E+01
DAV:  10    -0.414095366989E+03   -0.21941E+01   -0.39048E+00  2640   0.378E+00    0.356E+01
DAV:  11    -0.400614564172E+03    0.13481E+02   -0.18769E+01  2440   0.117E+01    0.202E+01
DAV:  12    -0.396612166614E+03    0.40024E+01   -0.57647E+00  2480   0.642E+00    0.128E+01
DAV:  13    -0.393853446272E+03    0.27587E+01   -0.11798E+01  2280   0.986E+00    0.189E+00
DAV:  14    -0.393933213147E+03   -0.79767E-01   -0.14313E+00  2408   0.278E+00    0.260E+00
DAV:  15    -0.393857593228E+03    0.75620E-01   -0.17683E+00  2528   0.303E+00    0.183E+00
DAV:  16    -0.393840429815E+03    0.17163E-01   -0.12609E-01  2432   0.946E-01    0.120E+00
DAV:  17    -0.393839953125E+03    0.47669E-03   -0.65440E-02  2328   0.641E-01    0.366E-01
DAV:  18    -0.393849765525E+03   -0.98124E-02   -0.65425E-02  2560   0.594E-01    0.486E-01
DAV:  19    -0.393859372258E+03   -0.96067E-02   -0.96790E-03  1920   0.247E-01    0.469E-01
DAV:  20    -0.393858492448E+03    0.87981E-03   -0.20186E-02  2248   0.379E-01    0.451E-02
DAV:  21    -0.393859238148E+03   -0.74570E-03   -0.11296E-03  2248   0.717E-02    0.769E-02
DAV:  22    -0.393859194690E+03    0.43459E-04   -0.26306E-04  2432   0.438E-02    0.254E-02
DAV:  23    -0.393859231830E+03   -0.37140E-04   -0.37160E-04  2456   0.461E-02    0.446E-02
DAV:  24    -0.393859205121E+03    0.26709E-04   -0.17543E-04  2416   0.329E-02    0.576E-03
DAV:  25    -0.393859205063E+03    0.57542E-07   -0.44426E-06  1328   0.489E-03
   1 F= -.39385921E+03 E0= -.39377225E+03  d E =-.173902E+00
 running on   16 total cores
 distrk:  each k-point on    8 cores,    2 groups
 distr:  one band on    4 cores,    2 groups
 using from now: INCAR     
 vasp.5.4.4.18Apr17-6-g9f103f2a35 (build Nov 27 2019 20:08:17) complex          
  
 POSCAR found type information on POSCAR  Ti
 POSCAR found :  1 types and     102 ions
 scaLAPACK will be used

 ----------------------------------------------------------------------------- 
|                                                                             |
|           W    W    AA    RRRRR   N    N  II  N    N   GGGG   !!!           |
|           W    W   A  A   R    R  NN   N  II  NN   N  G    G  !!!           |
|           W    W  A    A  R    R  N N  N  II  N N  N  G       !!!           |
|           W WW W  AAAAAA  RRRRR   N  N N  II  N  N N  G  GGG   !            |
|           WW  WW  A    A  R   R   N   NN  II  N   NN  G    G                |
|           W    W  A    A  R    R  N    N  II  N    N   GGGG   !!!           |
|                                                                             |
|      You have enabled k-point parallelism (KPAR>1).                         |
|      This developmental code was originally  written by Paul Kent at ORNL,  |
|      and carefully double checked in Vienna.                                |
|      GW as well as linear response parallelism added by Martijn Marsman     |
|      and Georg Kresse.                                                      |
|      Carefully verify results versus KPAR=1.                                |
|      Report problems to Paul Kent and Vienna.                               |
|                                                                             |
 ----------------------------------------------------------------------------- 

 LDA part: xc-table for Pade appr. of Perdew
 POSCAR found type information on POSCAR  Ti
 POSCAR found :  1 types and     102 ions

 ----------------------------------------------------------------------------- 
|                                                                             |
|           W    W    AA    RRRRR   N    N  II  N    N   GGGG   !!!           |
|           W    W   A  A   R    R  NN   N  II  NN   N  G    G  !!!           |
|           W    W  A    A  R    R  N N  N  II  N N  N  G       !!!           |
|           W WW W  AAAAAA  RRRRR   N  N N  II  N  N N  G  GGG   !            |
|           WW  WW  A    A  R   R   N   NN  II  N   NN  G    G                |
|           W    W  A    A  R    R  N    N  II  N    N   GGGG   !!!           |
|                                                                             |
|      The distance between some ions is very small                           |
|      please check the nearest neigbor list in the OUTCAR file               |
|          I HOPE YOU KNOW, WHAT YOU ARE  DOING                               |
|                                                                             |
 ----------------------------------------------------------------------------- 

 POSCAR, INCAR and KPOINTS ok, starting setup
 FFT: planning ...
 WAVECAR not read
 WARNING: random wavefunctions but no delay for mixing, default for NELMDL
 entering main loop
       N       E                     dE             d eps       ncg     rms          rms(c)
DAV:   1     0.194742251603E+04    0.19474E+04   -0.11949E+05  6656   0.127E+03
DAV:   2    -0.506228214078E+03   -0.24537E+04   -0.23852E+04  6656   0.291E+02
DAV:   3    -0.848248183348E+03   -0.34202E+03   -0.31910E+03  9456   0.108E+02
DAV:   4    -0.876823071354E+03   -0.28575E+02   -0.26749E+02  9624   0.301E+01
DAV:   5    -0.878328820483E+03   -0.15057E+01   -0.14453E+01  9960   0.556E+00    0.138E+02
DAV:   6    -0.166212577999E+04   -0.78380E+03   -0.14045E+04 12776   0.270E+02    0.158E+02
DAV:   7    -0.122564866473E+04    0.43648E+03   -0.12680E+04 10736   0.225E+02    0.114E+02
DAV:   8    -0.689695713080E+03    0.53595E+03   -0.33641E+03 10416   0.143E+02    0.610E+01
DAV:   9    -0.703536049163E+03   -0.13840E+02   -0.10310E+03 11640   0.610E+01    0.601E+01
DAV:  10    -0.727712614677E+03   -0.24177E+02   -0.32723E+02 12224   0.518E+01    0.505E+01
DAV:  11    -0.692688004226E+03    0.35025E+02   -0.24311E+02 12232   0.469E+01    0.342E+01
DAV:  12    -0.685469604071E+03    0.72184E+01   -0.26496E+02 10320   0.366E+01    0.263E+01
DAV:  13    -0.675900129396E+03    0.95695E+01   -0.75795E+01 10160   0.181E+01    0.148E+01
DAV:  14    -0.673861654834E+03    0.20385E+01   -0.25221E+01 10072   0.113E+01    0.102E+01
DAV:  15    -0.673611250985E+03    0.25040E+00   -0.97637E+00 10456   0.779E+00    0.831E+00
DAV:  16    -0.673354141633E+03    0.25711E+00   -0.70506E+00 10056   0.610E+00    0.631E+00
DAV:  17    -0.673183288894E+03    0.17085E+00   -0.56344E+00 10400   0.515E+00    0.483E+00
DAV:  18    -0.673080536724E+03    0.10275E+00   -0.34508E+00 10008   0.398E+00    0.342E+00
DAV:  19    -0.672931347294E+03    0.14919E+00   -0.16087E+00 10136   0.268E+00    0.191E+00
DAV:  20    -0.672893026457E+03    0.38321E-01   -0.35409E-01 10120   0.140E+00    0.113E+00
DAV:  21    -0.672880733372E+03    0.12293E-01   -0.13447E-01 10104   0.794E-01    0.695E-01
DAV:  22    -0.672876511116E+03    0.42223E-02   -0.52988E-02 10056   0.498E-01    0.400E-01
DAV:  23    -0.672876257647E+03    0.25347E-03   -0.22713E-02 10088   0.352E-01    0.338E-01
DAV:  24    -0.672875605131E+03    0.65252E-03   -0.10051E-02 10072   0.229E-01    0.254E-01
DAV:  25    -0.672875093565E+03    0.51157E-03   -0.48872E-03 10160   0.166E-01    0.173E-01
DAV:  26    -0.672874898182E+03    0.19538E-03   -0.23428E-03 10192   0.114E-01    0.121E-01
DAV:  27    -0.672874850522E+03    0.47660E-04   -0.18487E-03 10072   0.102E-01    0.819E-02
DAV:  28    -0.672874781076E+03    0.69447E-04   -0.59842E-04  9952   0.563E-02    0.486E-02
DAV:  29    -0.672874763915E+03    0.17161E-04   -0.17883E-04 10104   0.304E-02    0.357E-02
DAV:  30    -0.672874755226E+03    0.86888E-05   -0.94365E-05  9656   0.218E-02    0.218E-02
DAV:  31    -0.672874749060E+03    0.61659E-05   -0.41553E-05  8352   0.149E-02    0.114E-02
DAV:  32    -0.672874745493E+03    0.35668E-05   -0.13323E-05  4720   0.105E-02
   1 F= -.67287475E+03 E0= -.67278168E+03  d E =-.186135E+00
Distance=1.500
 running on   16 total cores
 distrk:  each k-point on    8 cores,    2 groups
 distr:  one band on    4 cores,    2 groups
 using from now: INCAR     
 vasp.5.4.4.18Apr17-6-g9f103f2a35 (build Nov 27 2019 20:08:17) complex          
  
 POSCAR found type information on POSCAR  Ti
 POSCAR found :  1 types and      48 ions
 scaLAPACK will be used

 ----------------------------------------------------------------------------- 
|                                                                             |
|           W    W    AA    RRRRR   N    N  II  N    N   GGGG   !!!           |
|           W    W   A  A   R    R  NN   N  II  NN   N  G    G  !!!           |
|           W    W  A    A  R    R  N N  N  II  N N  N  G       !!!           |
|           W WW W  AAAAAA  RRRRR   N  N N  II  N  N N  G  GGG   !            |
|           WW  WW  A    A  R   R   N   NN  II  N   NN  G    G                |
|           W    W  A    A  R    R  N    N  II  N    N   GGGG   !!!           |
|                                                                             |
|      You have enabled k-point parallelism (KPAR>1).                         |
|      This developmental code was originally  written by Paul Kent at ORNL,  |
|      and carefully double checked in Vienna.                                |
|      GW as well as linear response parallelism added by Martijn Marsman     |
|      and Georg Kresse.                                                      |
|      Carefully verify results versus KPAR=1.                                |
|      Report problems to Paul Kent and Vienna.                               |
|                                                                             |
 ----------------------------------------------------------------------------- 

 LDA part: xc-table for Pade appr. of Perdew
 POSCAR found type information on POSCAR  Ti
 POSCAR found :  1 types and      48 ions
 POSCAR, INCAR and KPOINTS ok, starting setup
 FFT: planning ...
 WAVECAR not read
 entering main loop
       N       E                     dE             d eps       ncg     rms          rms(c)
DAV:   1     0.863024565464E+03    0.86302E+03   -0.53796E+04  2196   0.110E+03
DAV:   2    -0.249369209065E+03   -0.11124E+04   -0.10709E+04  2196   0.244E+02
DAV:   3    -0.416341899085E+03   -0.16697E+03   -0.15735E+03  3376   0.851E+01
DAV:   4    -0.430015971865E+03   -0.13674E+02   -0.12861E+02  3472   0.260E+01
DAV:   5    -0.430912772542E+03   -0.89680E+00   -0.85438E+00  3600   0.550E+00    0.784E+01
DAV:   6    -0.571125685818E+03   -0.14021E+03   -0.25230E+03  4226   0.777E+01    0.116E+02
DAV:   7    -0.379831584819E+03    0.19129E+03   -0.43831E+03  3982   0.153E+02    0.396E+01
DAV:   8    -0.364311675394E+03    0.15520E+02   -0.49922E+02  3440   0.591E+01    0.317E+01
DAV:   9    -0.358190866169E+03    0.61208E+01   -0.40240E+01  3720   0.118E+01    0.253E+01
DAV:  10    -0.357918592888E+03    0.27227E+00   -0.22878E+00  3584   0.283E+00    0.248E+01
DAV:  11    -0.360124809291E+03   -0.22062E+01   -0.88489E-01  3328   0.272E+00    0.269E+01
DAV:  12    -0.345012428277E+03    0.15112E+02   -0.84896E+01  3040   0.279E+01    0.983E+00
DAV:  13    -0.345012206705E+03    0.22157E-03   -0.52896E+00  2944   0.605E+00    0.614E+00
DAV:  14    -0.344747987562E+03    0.26422E+00   -0.30679E+00  3592   0.358E+00    0.266E+00
DAV:  15    -0.344740290569E+03    0.76970E-02   -0.52322E-01  3224   0.198E+00    0.805E-01
DAV:  16    -0.344741457362E+03   -0.11668E-02   -0.58580E-02  3528   0.506E-01    0.814E-01
DAV:  17    -0.344736267199E+03    0.51902E-02   -0.73334E-02  2816   0.828E-01    0.300E-01
DAV:  18    -0.344741849519E+03   -0.55823E-02   -0.11745E-02  3648   0.212E-01    0.286E-01
DAV:  19    -0.344752268012E+03   -0.10418E-01   -0.34536E-02  3408   0.417E-01    0.472E-01
DAV:  20    -0.344751559702E+03    0.70831E-03   -0.89267E-03  3392   0.226E-01    0.183E-01
DAV:  21    -0.344754112736E+03   -0.25530E-02   -0.66745E-03  3360   0.194E-01    0.751E-02
DAV:  22    -0.344754864785E+03   -0.75205E-03   -0.10809E-03  3256   0.805E-02    0.331E-02
DAV:  23    -0.344754910616E+03   -0.45832E-04   -0.16065E-04  3336   0.325E-02    0.182E-02
DAV:  24    -0.344754914233E+03   -0.36171E-05   -0.21061E-05  2416   0.123E-02
   1 F= -.34475491E+03 E0= -.34469989E+03  d E =-.110039E+00
 running on   16 total cores
 distrk:  each k-point on    8 cores,    2 groups
 distr:  one band on    4 cores,    2 groups
 using from now: INCAR     
 vasp.5.4.4.18Apr17-6-g9f103f2a35 (build Nov 27 2019 20:08:17) complex          
  
 POSCAR found type information on POSCAR  Ti
 POSCAR found :  1 types and      54 ions
 scaLAPACK will be used

 ----------------------------------------------------------------------------- 
|                                                                             |
|           W    W    AA    RRRRR   N    N  II  N    N   GGGG   !!!           |
|           W    W   A  A   R    R  NN   N  II  NN   N  G    G  !!!           |
|           W    W  A    A  R    R  N N  N  II  N N  N  G       !!!           |
|           W WW W  AAAAAA  RRRRR   N  N N  II  N  N N  G  GGG   !            |
|           WW  WW  A    A  R   R   N   NN  II  N   NN  G    G                |
|           W    W  A    A  R    R  N    N  II  N    N   GGGG   !!!           |
|                                                                             |
|      You have enabled k-point parallelism (KPAR>1).                         |
|      This developmental code was originally  written by Paul Kent at ORNL,  |
|      and carefully double checked in Vienna.                                |
|      GW as well as linear response parallelism added by Martijn Marsman     |
|      and Georg Kresse.                                                      |
|      Carefully verify results versus KPAR=1.                                |
|      Report problems to Paul Kent and Vienna.                               |
|                                                                             |
 ----------------------------------------------------------------------------- 

 LDA part: xc-table for Pade appr. of Perdew
 POSCAR found type information on POSCAR  Ti
 POSCAR found :  1 types and      54 ions
 POSCAR, INCAR and KPOINTS ok, starting setup
 FFT: planning ...
 WAVECAR not read
 WARNING: random wavefunctions but no delay for mixing, default for NELMDL
 entering main loop
       N       E                     dE             d eps       ncg     rms          rms(c)
DAV:   1     0.107943857624E+04    0.10794E+04   -0.62461E+04  1632   0.114E+03
DAV:   2    -0.283114145715E+03   -0.13626E+04   -0.13122E+04  1632   0.255E+02
DAV:   3    -0.486426492117E+03   -0.20331E+03   -0.18830E+03  2376   0.928E+01
DAV:   4    -0.501377332048E+03   -0.14951E+02   -0.13823E+02  2408   0.294E+01
DAV:   5    -0.502319082825E+03   -0.94175E+00   -0.89746E+00  2688   0.566E+00    0.978E+01
DAV:   6    -0.790953078907E+03   -0.28863E+03   -0.43400E+03  3080   0.951E+01    0.133E+02
DAV:   7    -0.433721526294E+03    0.35723E+03   -0.64607E+03  3008   0.164E+02    0.438E+01
DAV:   8    -0.420814860184E+03    0.12907E+02   -0.70703E+02  2376   0.740E+01    0.423E+01
DAV:   9    -0.412888851527E+03    0.79260E+01   -0.46959E+01  2712   0.132E+01    0.344E+01
DAV:  10    -0.415514938711E+03   -0.26261E+01   -0.36787E+00  2608   0.379E+00    0.366E+01
DAV:  11    -0.397227838464E+03    0.18287E+02   -0.41992E+01  2440   0.170E+01    0.135E+01
DAV:  12    -0.396225814170E+03    0.10020E+01   -0.19387E+00  2472   0.354E+00    0.112E+01
DAV:  13    -0.394095064031E+03    0.21308E+01   -0.73469E+00  2344   0.751E+00    0.357E+00
DAV:  14    -0.393975650300E+03    0.11941E+00   -0.23380E+00  2408   0.406E+00    0.307E+00
DAV:  15    -0.393830435745E+03    0.14521E+00   -0.10611E+00  2448   0.250E+00    0.154E+00
DAV:  16    -0.393841689541E+03   -0.11254E-01   -0.68363E-02  2600   0.600E-01    0.122E+00
DAV:  17    -0.393844913167E+03   -0.32236E-02   -0.34445E-02  2192   0.359E-01    0.677E-01
DAV:  18    -0.393843520796E+03    0.13924E-02   -0.23561E-02  2472   0.356E-01    0.298E-01
DAV:  19    -0.393870227998E+03   -0.26707E-01   -0.14397E-01  2320   0.101E+00    0.102E+00
DAV:  20    -0.393857670905E+03    0.12557E-01   -0.43094E-02  2256   0.559E-01    0.365E-01
DAV:  21    -0.393858322358E+03   -0.65145E-03   -0.13728E-02  2448   0.297E-01    0.465E-02
DAV:  22    -0.393859007656E+03   -0.68530E-03   -0.70136E-04  2296   0.665E-02    0.697E-02
DAV:  23    -0.393859051240E+03   -0.43584E-04   -0.12053E-04  1936   0.311E-02    0.494E-02
DAV:  24    -0.393859034420E+03    0.16820E-04   -0.63745E-05  2312   0.189E-02    0.149E-02
DAV:  25    -0.393859032600E+03    0.18204E-05   -0.13634E-05  1400   0.990E-03
   1 F= -.39385903E+03 E0= -.39377209E+03  d E =-.173884E+00
 running on   16 total cores
 distrk:  each k-point on    8 cores,    2 groups
 distr:  one band on    4 cores,    2 groups
 using from now: INCAR     
 vasp.5.4.4.18Apr17-6-g9f103f2a35 (build Nov 27 2019 20:08:17) complex          
  
 POSCAR found type information on POSCAR  Ti
 POSCAR found :  1 types and     102 ions
 scaLAPACK will be used

 ----------------------------------------------------------------------------- 
|                                                                             |
|           W    W    AA    RRRRR   N    N  II  N    N   GGGG   !!!           |
|           W    W   A  A   R    R  NN   N  II  NN   N  G    G  !!!           |
|           W    W  A    A  R    R  N N  N  II  N N  N  G       !!!           |
|           W WW W  AAAAAA  RRRRR   N  N N  II  N  N N  G  GGG   !            |
|           WW  WW  A    A  R   R   N   NN  II  N   NN  G    G                |
|           W    W  A    A  R    R  N    N  II  N    N   GGGG   !!!           |
|                                                                             |
|      You have enabled k-point parallelism (KPAR>1).                         |
|      This developmental code was originally  written by Paul Kent at ORNL,  |
|      and carefully double checked in Vienna.                                |
|      GW as well as linear response parallelism added by Martijn Marsman     |
|      and Georg Kresse.                                                      |
|      Carefully verify results versus KPAR=1.                                |
|      Report problems to Paul Kent and Vienna.                               |
|                                                                             |
 ----------------------------------------------------------------------------- 

 LDA part: xc-table for Pade appr. of Perdew
 POSCAR found type information on POSCAR  Ti
 POSCAR found :  1 types and     102 ions

 ----------------------------------------------------------------------------- 
|                                                                             |
|           W    W    AA    RRRRR   N    N  II  N    N   GGGG   !!!           |
|           W    W   A  A   R    R  NN   N  II  NN   N  G    G  !!!           |
|           W    W  A    A  R    R  N N  N  II  N N  N  G       !!!           |
|           W WW W  AAAAAA  RRRRR   N  N N  II  N  N N  G  GGG   !            |
|           WW  WW  A    A  R   R   N   NN  II  N   NN  G    G                |
|           W    W  A    A  R    R  N    N  II  N    N   GGGG   !!!           |
|                                                                             |
|      The distance between some ions is very small                           |
|      please check the nearest neigbor list in the OUTCAR file               |
|          I HOPE YOU KNOW, WHAT YOU ARE  DOING                               |
|                                                                             |
 ----------------------------------------------------------------------------- 

 POSCAR, INCAR and KPOINTS ok, starting setup
 FFT: planning ...
 WAVECAR not read
 WARNING: random wavefunctions but no delay for mixing, default for NELMDL
 entering main loop
       N       E                     dE             d eps       ncg     rms          rms(c)
DAV:   1     0.181976707998E+04    0.18198E+04   -0.11759E+05  6656   0.125E+03
DAV:   2    -0.510241037501E+03   -0.23300E+04   -0.22629E+04  6656   0.280E+02
DAV:   3    -0.853803257627E+03   -0.34356E+03   -0.31956E+03  9616   0.997E+01
DAV:   4    -0.882536929380E+03   -0.28734E+02   -0.26902E+02  9768   0.298E+01
DAV:   5    -0.883724328854E+03   -0.11874E+01   -0.11507E+01  9496   0.506E+00    0.129E+02
DAV:   6    -0.193346021727E+04   -0.10497E+04   -0.10893E+04 13248   0.149E+02    0.177E+02
DAV:   7    -0.912561492480E+03    0.10209E+04   -0.14436E+04 12192   0.166E+02    0.781E+01
DAV:   8    -0.819181613917E+03    0.93380E+02   -0.26614E+03 10480   0.124E+02    0.704E+01
DAV:   9    -0.806801636848E+03    0.12380E+02   -0.10752E+03 11448   0.791E+01    0.545E+01
DAV:  10    -0.792130965534E+03    0.14671E+02   -0.22884E+02 11152   0.375E+01    0.492E+01
DAV:  11    -0.776967434404E+03    0.15164E+02   -0.52950E+01 10360   0.169E+01    0.405E+01
DAV:  12    -0.774018364621E+03    0.29491E+01   -0.71462E+00  9584   0.561E+00    0.363E+01
DAV:  13    -0.766826971364E+03    0.71914E+01   -0.19540E+01  9824   0.989E+00    0.246E+01
DAV:  14    -0.761454212433E+03    0.53728E+01   -0.18715E+01  9896   0.949E+00    0.158E+01
DAV:  15    -0.760415934470E+03    0.10383E+01   -0.36216E+00 10000   0.445E+00    0.136E+01
DAV:  16    -0.759897965027E+03    0.51797E+00   -0.18884E+00  9944   0.319E+00    0.123E+01
DAV:  17    -0.759456416260E+03    0.44155E+00   -0.27526E+00 10064   0.363E+00    0.112E+01
DAV:  18    -0.758335215636E+03    0.11212E+01   -0.32309E+00  9776   0.421E+00    0.720E+00
DAV:  19    -0.757894054626E+03    0.44116E+00   -0.19888E+00  9656   0.338E+00    0.424E+00
DAV:  20    -0.757702587206E+03    0.19147E+00   -0.14066E+00  8608   0.287E+00    0.160E+00
DAV:  21    -0.757671548168E+03    0.31039E-01   -0.32616E-01  9632   0.142E+00    0.781E-01
DAV:  22    -0.757669224652E+03    0.23235E-02   -0.65053E-02 10016   0.565E-01    0.646E-01
DAV:  23    -0.757666397125E+03    0.28275E-02   -0.24499E-02  9872   0.355E-01    0.348E-01
DAV:  24    -0.757665910074E+03    0.48705E-03   -0.18025E-02 10048   0.309E-01    0.260E-01
DAV:  25    -0.757665670595E+03    0.23948E-03   -0.10230E-02 10056   0.228E-01    0.213E-01
DAV:  26    -0.757665086316E+03    0.58428E-03   -0.57723E-03  9960   0.154E-01    0.118E-01
DAV:  27    -0.757664951935E+03    0.13438E-03   -0.16054E-03 10000   0.865E-02    0.782E-02
DAV:  28    -0.757664891838E+03    0.60096E-04   -0.60292E-04 10096   0.502E-02    0.387E-02
DAV:  29    -0.757664886794E+03    0.50444E-05   -0.16237E-04 10152   0.282E-02    0.262E-02
DAV:  30    -0.757664880113E+03    0.66812E-05   -0.58351E-05  8880   0.179E-02    0.167E-02
DAV:  31    -0.757664879872E+03    0.24028E-06   -0.28118E-05  6904   0.128E-02
   1 F= -.75766488E+03 E0= -.75755786E+03  d E =-.214034E+00
Distance=2.000
 running on   16 total cores
 distrk:  each k-point on    8 cores,    2 groups
 distr:  one band on    4 cores,    2 groups
 using from now: INCAR     
 vasp.5.4.4.18Apr17-6-g9f103f2a35 (build Nov 27 2019 20:08:17) complex          
  
 POSCAR found type information on POSCAR  Ti
 POSCAR found :  1 types and      48 ions
 scaLAPACK will be used

 ----------------------------------------------------------------------------- 
|                                                                             |
|           W    W    AA    RRRRR   N    N  II  N    N   GGGG   !!!           |
|           W    W   A  A   R    R  NN   N  II  NN   N  G    G  !!!           |
|           W    W  A    A  R    R  N N  N  II  N N  N  G       !!!           |
|           W WW W  AAAAAA  RRRRR   N  N N  II  N  N N  G  GGG   !            |
|           WW  WW  A    A  R   R   N   NN  II  N   NN  G    G                |
|           W    W  A    A  R    R  N    N  II  N    N   GGGG   !!!           |
|                                                                             |
|      You have enabled k-point parallelism (KPAR>1).                         |
|      This developmental code was originally  written by Paul Kent at ORNL,  |
|      and carefully double checked in Vienna.                                |
|      GW as well as linear response parallelism added by Martijn Marsman     |
|      and Georg Kresse.                                                      |
|      Carefully verify results versus KPAR=1.                                |
|      Report problems to Paul Kent and Vienna.                               |
|                                                                             |
 ----------------------------------------------------------------------------- 

 LDA part: xc-table for Pade appr. of Perdew
 POSCAR found type information on POSCAR  Ti
 POSCAR found :  1 types and      48 ions
 POSCAR, INCAR and KPOINTS ok, starting setup
 FFT: planning ...
 WAVECAR not read
 entering main loop
       N       E                     dE             d eps       ncg     rms          rms(c)
DAV:   1     0.875733377967E+03    0.87573E+03   -0.53678E+04  2196   0.110E+03
DAV:   2    -0.248243316225E+03   -0.11240E+04   -0.10817E+04  2196   0.243E+02
DAV:   3    -0.416026881992E+03   -0.16778E+03   -0.15806E+03  3376   0.845E+01
DAV:   4    -0.429932175502E+03   -0.13905E+02   -0.13091E+02  3448   0.265E+01
DAV:   5    -0.430905029841E+03   -0.97285E+00   -0.92340E+00  3640   0.571E+00    0.784E+01
DAV:   6    -0.567124000008E+03   -0.13622E+03   -0.24865E+03  4206   0.772E+01    0.115E+02
DAV:   7    -0.383132946037E+03    0.18399E+03   -0.44569E+03  3990   0.154E+02    0.403E+01
DAV:   8    -0.364497814122E+03    0.18635E+02   -0.50245E+02  3376   0.598E+01    0.319E+01
DAV:   9    -0.358457626870E+03    0.60402E+01   -0.41889E+01  3704   0.117E+01    0.256E+01
DAV:  10    -0.357978961224E+03    0.47867E+00   -0.24193E+00  3640   0.290E+00    0.249E+01
DAV:  11    -0.357460556215E+03    0.51841E+00   -0.29656E-01  3560   0.987E-01    0.243E+01
DAV:  12    -0.345539211123E+03    0.11921E+02   -0.34797E+01  2912   0.181E+01    0.887E+00
DAV:  13    -0.344910162341E+03    0.62905E+00   -0.14194E+01  3528   0.617E+00    0.529E+00
DAV:  14    -0.344969040374E+03   -0.58878E-01   -0.10209E+00  3632   0.215E+00    0.464E+00
DAV:  15    -0.345013848651E+03   -0.44808E-01   -0.91855E-01  3152   0.246E+00    0.618E+00
DAV:  16    -0.344962621927E+03    0.51227E-01   -0.29611E+00  3600   0.355E+00    0.421E+00
DAV:  17    -0.344806696382E+03    0.15593E+00   -0.86953E-01  3632   0.244E+00    0.284E+00
DAV:  18    -0.344793740812E+03    0.12956E-01   -0.10604E-01  3456   0.898E-01    0.232E+00
DAV:  19    -0.344762074946E+03    0.31666E-01   -0.56274E-02  3384   0.606E-01    0.145E+00
DAV:  20    -0.344746937657E+03    0.15137E-01   -0.20687E-01  3408   0.108E+00    0.307E-01
DAV:  21    -0.344754764645E+03   -0.78270E-02   -0.25319E-02  3600   0.368E-01    0.765E-01
DAV:  22    -0.344755683061E+03   -0.91842E-03   -0.24124E-03  3048   0.134E-01    0.671E-01
DAV:  23    -0.344754078185E+03    0.16049E-02   -0.86412E-03  3152   0.220E-01    0.314E-01
DAV:  24    -0.344754170590E+03   -0.92405E-04   -0.36996E-03  3464   0.160E-01    0.105E-01
DAV:  25    -0.344754333075E+03   -0.16249E-03   -0.79432E-04  3656   0.603E-02    0.393E-02
DAV:  26    -0.344754723888E+03   -0.39081E-03   -0.99679E-04  3160   0.794E-02    0.834E-02
DAV:  27    -0.344754676505E+03    0.47383E-04   -0.19626E-04  3248   0.353E-02    0.449E-02
DAV:  28    -0.344754662719E+03    0.13786E-04   -0.81647E-05  3280   0.216E-02    0.109E-02
DAV:  29    -0.344754663199E+03   -0.47983E-06   -0.45357E-06  1672   0.629E-03
   1 F= -.34475466E+03 E0= -.34469964E+03  d E =-.110044E+00
 running on   16 total cores
 distrk:  each k-point on    8 cores,    2 groups
 distr:  one band on    4 cores,    2 groups
 using from now: INCAR     
 vasp.5.4.4.18Apr17-6-g9f103f2a35 (build Nov 27 2019 20:08:17) complex          
  
 POSCAR found type information on POSCAR  Ti
 POSCAR found :  1 types and      54 ions
 scaLAPACK will be used

 ----------------------------------------------------------------------------- 
|                                                                             |
|           W    W    AA    RRRRR   N    N  II  N    N   GGGG   !!!           |
|           W    W   A  A   R    R  NN   N  II  NN   N  G    G  !!!           |
|           W    W  A    A  R    R  N N  N  II  N N  N  G       !!!           |
|           W WW W  AAAAAA  RRRRR   N  N N  II  N  N N  G  GGG   !            |
|           WW  WW  A    A  R   R   N   NN  II  N   NN  G    G                |
|           W    W  A    A  R    R  N    N  II  N    N   GGGG   !!!           |
|                                                                             |
|      You have enabled k-point parallelism (KPAR>1).                         |
|      This developmental code was originally  written by Paul Kent at ORNL,  |
|      and carefully double checked in Vienna.                                |
|      GW as well as linear response parallelism added by Martijn Marsman     |
|      and Georg Kresse.                                                      |
|      Carefully verify results versus KPAR=1.                                |
|      Report problems to Paul Kent and Vienna.                               |
|                                                                             |
 ----------------------------------------------------------------------------- 

 LDA part: xc-table for Pade appr. of Perdew
 POSCAR found type information on POSCAR  Ti
 POSCAR found :  1 types and      54 ions
 POSCAR, INCAR and KPOINTS ok, starting setup
 FFT: planning ...
 WAVECAR not read
 WARNING: random wavefunctions but no delay for mixing, default for NELMDL
 entering main loop
       N       E                     dE             d eps       ncg     rms          rms(c)
DAV:   1     0.109505444730E+04    0.10951E+04   -0.62219E+04  1632   0.113E+03
DAV:   2    -0.282200026849E+03   -0.13773E+04   -0.13266E+04  1632   0.254E+02
DAV:   3    -0.486300328874E+03   -0.20410E+03   -0.18979E+03  2384   0.921E+01
DAV:   4    -0.501315440654E+03   -0.15015E+02   -0.13881E+02  2424   0.295E+01
DAV:   5    -0.502306515887E+03   -0.99108E+00   -0.94094E+00  2688   0.580E+00    0.978E+01
DAV:   6    -0.784370592241E+03   -0.28206E+03   -0.42838E+03  3088   0.943E+01    0.132E+02
DAV:   7    -0.437685362586E+03    0.34669E+03   -0.65673E+03  3000   0.166E+02    0.448E+01
DAV:   8    -0.421335413601E+03    0.16350E+02   -0.72196E+02  2400   0.754E+01    0.428E+01
DAV:   9    -0.413554066886E+03    0.77813E+01   -0.49534E+01  2776   0.134E+01    0.349E+01
DAV:  10    -0.416663479158E+03   -0.31094E+01   -0.50556E+00  2656   0.425E+00    0.374E+01
DAV:  11    -0.396636276084E+03    0.20027E+02   -0.49844E+01  2440   0.186E+01    0.122E+01
DAV:  12    -0.395871647570E+03    0.76463E+00   -0.21440E+00  2512   0.359E+00    0.102E+01
DAV:  13    -0.394073555079E+03    0.17981E+01   -0.59525E+00  2328   0.678E+00    0.360E+00
DAV:  14    -0.393951051105E+03    0.12250E+00   -0.16612E+00  2368   0.350E+00    0.278E+00
DAV:  15    -0.393852100565E+03    0.98951E-01   -0.13536E+00  2520   0.273E+00    0.182E+00
DAV:  16    -0.393850606539E+03    0.14940E-02   -0.75546E-02  2376   0.726E-01    0.131E+00
DAV:  17    -0.393844634856E+03    0.59717E-02   -0.30998E-02  2096   0.393E-01    0.510E-01
DAV:  18    -0.393844567912E+03    0.66944E-04   -0.31553E-02  2536   0.410E-01    0.186E-01
DAV:  19    -0.393869454585E+03   -0.24887E-01   -0.10698E-01  2200   0.921E-01    0.105E+00
DAV:  20    -0.393854291812E+03    0.15163E-01   -0.55328E-02  2128   0.665E-01    0.303E-01
DAV:  21    -0.393856367856E+03   -0.20760E-02   -0.12376E-02  2480   0.280E-01    0.950E-02
DAV:  22    -0.393857698845E+03   -0.13310E-02   -0.13041E-03  2304   0.813E-02    0.491E-02
DAV:  23    -0.393858115795E+03   -0.41695E-03   -0.45668E-04  2384   0.516E-02    0.672E-02
DAV:  24    -0.393858208217E+03   -0.92422E-04   -0.12252E-04  2240   0.272E-02    0.339E-02
DAV:  25    -0.393858202389E+03    0.58280E-05   -0.60581E-05  2264   0.220E-02    0.802E-03
DAV:  26    -0.393858201491E+03    0.89787E-06   -0.51861E-06  1192   0.638E-03
   1 F= -.39385820E+03 E0= -.39377126E+03  d E =-.173880E+00
 running on   16 total cores
 distrk:  each k-point on    8 cores,    2 groups
 distr:  one band on    4 cores,    2 groups
 using from now: INCAR     
 vasp.5.4.4.18Apr17-6-g9f103f2a35 (build Nov 27 2019 20:08:17) complex          
  
 POSCAR found type information on POSCAR  Ti
 POSCAR found :  1 types and     102 ions
 scaLAPACK will be used

 ----------------------------------------------------------------------------- 
|                                                                             |
|           W    W    AA    RRRRR   N    N  II  N    N   GGGG   !!!           |
|           W    W   A  A   R    R  NN   N  II  NN   N  G    G  !!!           |
|           W    W  A    A  R    R  N N  N  II  N N  N  G       !!!           |
|           W WW W  AAAAAA  RRRRR   N  N N  II  N  N N  G  GGG   !            |
|           WW  WW  A    A  R   R   N   NN  II  N   NN  G    G                |
|           W    W  A    A  R    R  N    N  II  N    N   GGGG   !!!           |
|                                                                             |
|      You have enabled k-point parallelism (KPAR>1).                         |
|      This developmental code was originally  written by Paul Kent at ORNL,  |
|      and carefully double checked in Vienna.                                |
|      GW as well as linear response parallelism added by Martijn Marsman     |
|      and Georg Kresse.                                                      |
|      Carefully verify results versus KPAR=1.                                |
|      Report problems to Paul Kent and Vienna.                               |
|                                                                             |
 ----------------------------------------------------------------------------- 

 LDA part: xc-table for Pade appr. of Perdew
 POSCAR found type information on POSCAR  Ti
 POSCAR found :  1 types and     102 ions
 POSCAR, INCAR and KPOINTS ok, starting setup
 FFT: planning ...
 WAVECAR not read
 WARNING: random wavefunctions but no delay for mixing, default for NELMDL
 entering main loop
       N       E                     dE             d eps       ncg     rms          rms(c)
DAV:   1     0.174120990968E+04    0.17412E+04   -0.11685E+05  6656   0.124E+03
DAV:   2    -0.527403247271E+03   -0.22686E+04   -0.22053E+04  6656   0.276E+02
DAV:   3    -0.868213982461E+03   -0.34081E+03   -0.31827E+03  9872   0.962E+01
DAV:   4    -0.896694196709E+03   -0.28480E+02   -0.26767E+02  9912   0.285E+01
DAV:   5    -0.897875008763E+03   -0.11808E+01   -0.11475E+01  9584   0.460E+00    0.126E+02
DAV:   6    -0.209863301834E+04   -0.12008E+04   -0.12238E+04 13024   0.171E+02    0.140E+02
DAV:   7    -0.973938846331E+03    0.11247E+04   -0.12446E+04 12104   0.146E+02    0.991E+01
DAV:   8    -0.783489696690E+03    0.19045E+03   -0.38878E+03 10672   0.146E+02    0.506E+01
DAV:   9    -0.812218122771E+03   -0.28728E+02   -0.10426E+03 11368   0.593E+01    0.483E+01
DAV:  10    -0.807402204974E+03    0.48159E+01   -0.21331E+02 10848   0.262E+01    0.481E+01
DAV:  11    -0.802796467566E+03    0.46057E+01   -0.20380E+01 10656   0.849E+00    0.467E+01
DAV:  12    -0.800918221867E+03    0.18782E+01   -0.19133E+00  9752   0.230E+00    0.457E+01
DAV:  13    -0.782419780556E+03    0.18498E+02   -0.17493E+01 10216   0.876E+00    0.312E+01
DAV:  14    -0.774859941732E+03    0.75598E+01   -0.18162E+01 10264   0.901E+00    0.214E+01
DAV:  15    -0.769034293674E+03    0.58256E+01   -0.14378E+01  9952   0.825E+00    0.113E+01
DAV:  16    -0.767239883087E+03    0.17944E+01   -0.42938E+00  9832   0.461E+00    0.693E+00
DAV:  17    -0.766832416017E+03    0.40747E+00   -0.25028E+00 10568   0.323E+00    0.608E+00
DAV:  18    -0.766437067784E+03    0.39535E+00   -0.21964E+00 10432   0.299E+00    0.516E+00
DAV:  19    -0.766238608512E+03    0.19846E+00   -0.18487E+00 10304   0.274E+00    0.458E+00
DAV:  20    -0.766034946160E+03    0.20366E+00   -0.14028E+00 10024   0.261E+00    0.332E+00
DAV:  21    -0.766007112074E+03    0.27834E-01   -0.51505E-01 10096   0.157E+00    0.296E+00
DAV:  22    -0.765973103720E+03    0.34008E-01   -0.33994E-01 10248   0.127E+00    0.236E+00
DAV:  23    -0.765977124048E+03   -0.40203E-02   -0.16189E-01 10240   0.832E-01    0.220E+00
DAV:  24    -0.765960993583E+03    0.16130E-01   -0.10636E-01 10176   0.679E-01    0.183E+00
DAV:  25    -0.765940271752E+03    0.20722E-01   -0.96771E-02 10208   0.603E-01    0.134E+00
DAV:  26    -0.765940714811E+03   -0.44306E-03   -0.57474E-02 10944   0.475E-01    0.109E+00
DAV:  27    -0.765938467410E+03    0.22474E-02   -0.11994E-02  9792   0.245E-01    0.871E-01
DAV:  28    -0.765935688015E+03    0.27794E-02   -0.68827E-03 10216   0.176E-01    0.636E-01
DAV:  29    -0.765932339720E+03    0.33483E-02   -0.12102E-02 10328   0.215E-01    0.326E-01
DAV:  30    -0.765931407632E+03    0.93209E-03   -0.64447E-03 10256   0.160E-01    0.214E-01
DAV:  31    -0.765930868168E+03    0.53946E-03   -0.27814E-03 10448   0.105E-01    0.137E-01
DAV:  32    -0.765930677383E+03    0.19079E-03   -0.99698E-04 10368   0.664E-02    0.942E-02
DAV:  33    -0.765930638183E+03    0.39200E-04   -0.42025E-04 10496   0.405E-02    0.876E-02
DAV:  34    -0.765930688138E+03   -0.49954E-04   -0.43685E-04 10216   0.399E-02    0.984E-02
DAV:  35    -0.765930649401E+03    0.38737E-04   -0.30791E-04  9952   0.390E-02    0.894E-02
DAV:  36    -0.765930589173E+03    0.60228E-04   -0.28537E-04 10848   0.340E-02    0.430E-02
DAV:  37    -0.765930586875E+03    0.22981E-05   -0.57587E-05  9016   0.173E-02    0.316E-02
DAV:  38    -0.765930579509E+03    0.73653E-05   -0.11434E-05  4624   0.910E-03    0.210E-02
DAV:  39    -0.765930575592E+03    0.39172E-05   -0.64962E-06  4024   0.466E-03
   1 F= -.76593058E+03 E0= -.76581632E+03  d E =-.228517E+00
Distance=2.500
 running on   16 total cores
 distrk:  each k-point on    8 cores,    2 groups
 distr:  one band on    4 cores,    2 groups
 using from now: INCAR     
 vasp.5.4.4.18Apr17-6-g9f103f2a35 (build Nov 27 2019 20:08:17) complex          
  
 POSCAR found type information on POSCAR  Ti
 POSCAR found :  1 types and      48 ions
 scaLAPACK will be used

 ----------------------------------------------------------------------------- 
|                                                                             |
|           W    W    AA    RRRRR   N    N  II  N    N   GGGG   !!!           |
|           W    W   A  A   R    R  NN   N  II  NN   N  G    G  !!!           |
|           W    W  A    A  R    R  N N  N  II  N N  N  G       !!!           |
|           W WW W  AAAAAA  RRRRR   N  N N  II  N  N N  G  GGG   !            |
|           WW  WW  A    A  R   R   N   NN  II  N   NN  G    G                |
|           W    W  A    A  R    R  N    N  II  N    N   GGGG   !!!           |
|                                                                             |
|      You have enabled k-point parallelism (KPAR>1).                         |
|      This developmental code was originally  written by Paul Kent at ORNL,  |
|      and carefully double checked in Vienna.                                |
|      GW as well as linear response parallelism added by Martijn Marsman     |
|      and Georg Kresse.                                                      |
|      Carefully verify results versus KPAR=1.                                |
|      Report problems to Paul Kent and Vienna.                               |
|                                                                             |
 ----------------------------------------------------------------------------- 

 LDA part: xc-table for Pade appr. of Perdew
 POSCAR found type information on POSCAR  Ti
 POSCAR found :  1 types and      48 ions
 POSCAR, INCAR and KPOINTS ok, starting setup
 FFT: planning ...
 WAVECAR not read
 entering main loop
       N       E                     dE             d eps       ncg     rms          rms(c)
DAV:   1     0.880985651112E+03    0.88099E+03   -0.53495E+04  2196   0.109E+03
DAV:   2    -0.247565615129E+03   -0.11286E+04   -0.10861E+04  2196   0.241E+02
DAV:   3    -0.416129201534E+03   -0.16856E+03   -0.15895E+03  3432   0.838E+01
DAV:   4    -0.429906480617E+03   -0.13777E+02   -0.12932E+02  3432   0.263E+01
DAV:   5    -0.430904690754E+03   -0.99821E+00   -0.94683E+00  3632   0.582E+00    0.784E+01
DAV:   6    -0.561687308768E+03   -0.13078E+03   -0.24363E+03  4250   0.767E+01    0.115E+02
DAV:   7    -0.386496037355E+03    0.17519E+03   -0.45322E+03  3982   0.156E+02    0.409E+01
DAV:   8    -0.364962172140E+03    0.21534E+02   -0.50406E+02  3392   0.605E+01    0.321E+01
DAV:   9    -0.358989850448E+03    0.59723E+01   -0.41367E+01  3704   0.117E+01    0.260E+01
DAV:  10    -0.354667664621E+03    0.43222E+01   -0.42444E+00  3496   0.477E+00    0.214E+01
DAV:  11    -0.348772779634E+03    0.58949E+01   -0.14202E+01  3496   0.109E+01    0.141E+01
DAV:  12    -0.344920388360E+03    0.38524E+01   -0.15994E+01  3456   0.101E+01    0.360E+00
DAV:  13    -0.344953865807E+03   -0.33477E-01   -0.12453E+00  3688   0.232E+00    0.309E+00
DAV:  14    -0.344899862876E+03    0.54003E-01   -0.21097E-01  3448   0.106E+00    0.294E+00
DAV:  15    -0.344753109070E+03    0.14675E+00   -0.14465E+00  3464   0.312E+00    0.102E+00
DAV:  16    -0.344743593238E+03    0.95158E-02   -0.13053E-01  3280   0.805E-01    0.353E-01
DAV:  17    -0.344744927117E+03   -0.13339E-02   -0.22806E-02  3040   0.445E-01    0.250E-01
DAV:  18    -0.344744707357E+03    0.21976E-03   -0.69953E-03  3320   0.208E-01    0.177E-01
DAV:  19    -0.344747326791E+03   -0.26194E-02   -0.12429E-03  3016   0.730E-02    0.139E-01
DAV:  20    -0.344750647166E+03   -0.33204E-02   -0.14677E-03  2688   0.826E-02    0.752E-02
DAV:  21    -0.344753312626E+03   -0.26655E-02   -0.87917E-04  2880   0.669E-02    0.347E-02
DAV:  22    -0.344754424311E+03   -0.11117E-02   -0.11165E-03  3448   0.828E-02    0.751E-02
DAV:  23    -0.344754577490E+03   -0.15318E-03   -0.35317E-04  3256   0.449E-02    0.187E-02
DAV:  24    -0.344754624533E+03   -0.47043E-04   -0.51419E-05  3120   0.172E-02    0.491E-03
DAV:  25    -0.344754635423E+03   -0.10890E-04   -0.92032E-06  1840   0.928E-03    0.549E-03
DAV:  26    -0.344754638885E+03   -0.34616E-05   -0.43655E-06  1744   0.458E-03
   1 F= -.34475464E+03 E0= -.34469963E+03  d E =-.110016E+00
 running on   16 total cores
 distrk:  each k-point on    8 cores,    2 groups
 distr:  one band on    4 cores,    2 groups
 using from now: INCAR     
 vasp.5.4.4.18Apr17-6-g9f103f2a35 (build Nov 27 2019 20:08:17) complex          
  
 POSCAR found type information on POSCAR  Ti
 POSCAR found :  1 types and      54 ions
 scaLAPACK will be used

 ----------------------------------------------------------------------------- 
|                                                                             |
|           W    W    AA    RRRRR   N    N  II  N    N   GGGG   !!!           |
|           W    W   A  A   R    R  NN   N  II  NN   N  G    G  !!!           |
|           W    W  A    A  R    R  N N  N  II  N N  N  G       !!!           |
|           W WW W  AAAAAA  RRRRR   N  N N  II  N  N N  G  GGG   !            |
|           WW  WW  A    A  R   R   N   NN  II  N   NN  G    G                |
|           W    W  A    A  R    R  N    N  II  N    N   GGGG   !!!           |
|                                                                             |
|      You have enabled k-point parallelism (KPAR>1).                         |
|      This developmental code was originally  written by Paul Kent at ORNL,  |
|      and carefully double checked in Vienna.                                |
|      GW as well as linear response parallelism added by Martijn Marsman     |
|      and Georg Kresse.                                                      |
|      Carefully verify results versus KPAR=1.                                |
|      Report problems to Paul Kent and Vienna.                               |
|                                                                             |
 ----------------------------------------------------------------------------- 

 LDA part: xc-table for Pade appr. of Perdew
 POSCAR found type information on POSCAR  Ti
 POSCAR found :  1 types and      54 ions
 POSCAR, INCAR and KPOINTS ok, starting setup
 FFT: planning ...
 WAVECAR not read
 WARNING: random wavefunctions but no delay for mixing, default for NELMDL
 entering main loop
       N       E                     dE             d eps       ncg     rms          rms(c)
DAV:   1     0.110717745448E+04    0.11072E+04   -0.62104E+04  1632   0.112E+03
DAV:   2    -0.281434134755E+03   -0.13886E+04   -0.13377E+04  1632   0.253E+02
DAV:   3    -0.486270511222E+03   -0.20484E+03   -0.19068E+03  2424   0.915E+01
DAV:   4    -0.501269693342E+03   -0.14999E+02   -0.13785E+02  2384   0.294E+01
DAV:   5    -0.502310163182E+03   -0.10405E+01   -0.98612E+00  2704   0.600E+00    0.978E+01
DAV:   6    -0.775298506682E+03   -0.27299E+03   -0.41725E+03  3072   0.935E+01    0.131E+02
DAV:   7    -0.442017932457E+03    0.33328E+03   -0.66353E+03  2992   0.167E+02    0.455E+01
DAV:   8    -0.421816587299E+03    0.20201E+02   -0.73365E+02  2416   0.763E+01    0.430E+01
DAV:   9    -0.414255622176E+03    0.75610E+01   -0.49475E+01  2752   0.132E+01    0.353E+01
DAV:  10    -0.417458256795E+03   -0.32026E+01   -0.56050E+00  2664   0.414E+00    0.379E+01
DAV:  11    -0.396495206520E+03    0.20963E+02   -0.54413E+01  2448   0.193E+01    0.117E+01
DAV:  12    -0.395628086041E+03    0.86712E+00   -0.27187E+00  2536   0.416E+00    0.942E+00
DAV:  13    -0.394152814238E+03    0.14753E+01   -0.40173E+00  2320   0.562E+00    0.408E+00
DAV:  14    -0.393945720572E+03    0.20709E+00   -0.13860E+00  2376   0.335E+00    0.271E+00
DAV:  15    -0.393883056591E+03    0.62664E-01   -0.17995E+00  2480   0.311E+00    0.234E+00
DAV:  16    -0.393858338070E+03    0.24719E-01   -0.18229E-01  2456   0.108E+00    0.143E+00
DAV:  17    -0.393846530389E+03    0.11808E-01   -0.52837E-02  2248   0.571E-01    0.327E-01
DAV:  18    -0.393846659524E+03   -0.12913E-03   -0.12538E-02  2624   0.258E-01    0.154E-01
DAV:  19    -0.393861304055E+03   -0.14645E-01   -0.59955E-02  2072   0.735E-01    0.782E-01
DAV:  20    -0.393853449464E+03    0.78546E-02   -0.24429E-02  1904   0.484E-01    0.292E-01
DAV:  21    -0.393855975929E+03   -0.25265E-02   -0.13019E-02  2280   0.316E-01    0.160E-01
DAV:  22    -0.393856914719E+03   -0.93879E-03   -0.14656E-03  2376   0.108E-01    0.917E-02
DAV:  23    -0.393857610440E+03   -0.69572E-03   -0.20480E-04  2160   0.393E-02    0.757E-02
DAV:  24    -0.393857805995E+03   -0.19555E-03   -0.48778E-05  2040   0.172E-02    0.531E-02
DAV:  25    -0.393857825511E+03   -0.19517E-04   -0.20330E-04  2168   0.405E-02    0.833E-03
DAV:  26    -0.393857833394E+03   -0.78823E-05   -0.67369E-06  1248   0.664E-03    0.311E-03
DAV:  27    -0.393857834865E+03   -0.14712E-05   -0.17455E-06  1072   0.325E-03
   1 F= -.39385783E+03 E0= -.39377090E+03  d E =-.173864E+00
 running on   16 total cores
 distrk:  each k-point on    8 cores,    2 groups
 distr:  one band on    4 cores,    2 groups
 using from now: INCAR     
 vasp.5.4.4.18Apr17-6-g9f103f2a35 (build Nov 27 2019 20:08:17) complex          
  
 POSCAR found type information on POSCAR  Ti
 POSCAR found :  1 types and     102 ions
 scaLAPACK will be used

 ----------------------------------------------------------------------------- 
|                                                                             |
|           W    W    AA    RRRRR   N    N  II  N    N   GGGG   !!!           |
|           W    W   A  A   R    R  NN   N  II  NN   N  G    G  !!!           |
|           W    W  A    A  R    R  N N  N  II  N N  N  G       !!!           |
|           W WW W  AAAAAA  RRRRR   N  N N  II  N  N N  G  GGG   !            |
|           WW  WW  A    A  R   R   N   NN  II  N   NN  G    G                |
|           W    W  A    A  R    R  N    N  II  N    N   GGGG   !!!           |
|                                                                             |
|      You have enabled k-point parallelism (KPAR>1).                         |
|      This developmental code was originally  written by Paul Kent at ORNL,  |
|      and carefully double checked in Vienna.                                |
|      GW as well as linear response parallelism added by Martijn Marsman     |
|      and Georg Kresse.                                                      |
|      Carefully verify results versus KPAR=1.                                |
|      Report problems to Paul Kent and Vienna.                               |
|                                                                             |
 ----------------------------------------------------------------------------- 

 LDA part: xc-table for Pade appr. of Perdew
 POSCAR found type information on POSCAR  Ti
 POSCAR found :  1 types and     102 ions
 POSCAR, INCAR and KPOINTS ok, starting setup
 FFT: planning ...
 WAVECAR not read
 WARNING: random wavefunctions but no delay for mixing, default for NELMDL
 entering main loop
       N       E                     dE             d eps       ncg     rms          rms(c)
DAV:   1     0.170450763489E+04    0.17045E+04   -0.11670E+05  6656   0.123E+03
DAV:   2    -0.544646310647E+03   -0.22492E+04   -0.21850E+04  6656   0.274E+02
DAV:   3    -0.892419736121E+03   -0.34777E+03   -0.32677E+03 10080   0.960E+01
DAV:   4    -0.920087702551E+03   -0.27668E+02   -0.26152E+02  9888   0.286E+01
DAV:   5    -0.921131320711E+03   -0.10436E+01   -0.10149E+01  9632   0.436E+00    0.126E+02
DAV:   6    -0.251606911088E+04   -0.15949E+04   -0.17011E+04 13016   0.186E+02    0.152E+02
DAV:   7    -0.106557545263E+04    0.14505E+04   -0.13816E+04 12248   0.138E+02    0.128E+02
DAV:   8    -0.772527665338E+03    0.29305E+03   -0.53493E+03 10592   0.171E+02    0.489E+01
DAV:   9    -0.841317309841E+03   -0.68790E+02   -0.14240E+03 11760   0.669E+01    0.581E+01
DAV:  10    -0.812184665653E+03    0.29133E+02   -0.39336E+02 10952   0.386E+01    0.491E+01
DAV:  11    -0.811064393558E+03    0.11203E+01   -0.35568E+01 10776   0.971E+00    0.489E+01
DAV:  12    -0.818851537319E+03   -0.77871E+01   -0.36599E+00 10600   0.324E+00    0.520E+01
DAV:  13    -0.808297943152E+03    0.10554E+02   -0.93513E+00 10960   0.621E+00    0.464E+01
DAV:  14    -0.793099793962E+03    0.15198E+02   -0.42076E+01 10440   0.130E+01    0.387E+01
DAV:  15    -0.771760024375E+03    0.21340E+02   -0.32539E+01 10432   0.121E+01    0.215E+01
DAV:  16    -0.767302161462E+03    0.44579E+01   -0.88744E+00 10400   0.578E+00    0.149E+01
DAV:  17    -0.766704615193E+03    0.59755E+00   -0.15984E+00 10176   0.254E+00    0.138E+01
DAV:  18    -0.767212223894E+03   -0.50761E+00   -0.25593E+00 10552   0.306E+00    0.150E+01
DAV:  19    -0.766550144692E+03    0.66208E+00   -0.21978E+00 10464   0.282E+00    0.139E+01
DAV:  20    -0.763837800970E+03    0.27123E+01   -0.49774E+00 10480   0.449E+00    0.877E+00
DAV:  21    -0.763018190050E+03    0.81961E+00   -0.29029E+00 10480   0.363E+00    0.612E+00
DAV:  22    -0.763072992561E+03   -0.54803E-01   -0.87675E-01 10424   0.200E+00    0.613E+00
DAV:  23    -0.762912273947E+03    0.16072E+00   -0.20260E-01 10384   0.920E-01    0.550E+00
DAV:  24    -0.762558010773E+03    0.35426E+00   -0.50514E-01 10760   0.140E+00    0.391E+00
DAV:  25    -0.762332692051E+03    0.22532E+00   -0.61944E-01 10608   0.152E+00    0.229E+00
DAV:  26    -0.762325802863E+03    0.68892E-02   -0.29203E-01 10328   0.106E+00    0.212E+00
DAV:  27    -0.762297555478E+03    0.28247E-01   -0.96006E-02 10752   0.590E-01    0.172E+00
DAV:  28    -0.762271504763E+03    0.26051E-01   -0.57880E-02 10824   0.442E-01    0.120E+00
DAV:  29    -0.762265770844E+03    0.57339E-02   -0.36540E-02 10344   0.385E-01    0.954E-01
DAV:  30    -0.762262481548E+03    0.32893E-02   -0.35999E-02  9984   0.392E-01    0.687E-01
DAV:  31    -0.762259098636E+03    0.33829E-02   -0.24924E-02 10448   0.278E-01    0.399E-01
DAV:  32    -0.762257866762E+03    0.12319E-02   -0.12659E-02 10440   0.196E-01    0.228E-01
DAV:  33    -0.762257629727E+03    0.23704E-03   -0.28959E-03 10216   0.108E-01    0.183E-01
DAV:  34    -0.762257353068E+03    0.27666E-03   -0.20585E-03 10216   0.868E-02    0.108E-01
DAV:  35    -0.762257353667E+03   -0.59984E-06   -0.70606E-04 10168   0.527E-02    0.946E-02
DAV:  36    -0.762257304442E+03    0.49225E-04   -0.45793E-04 10304   0.415E-02    0.695E-02
DAV:  37    -0.762257274159E+03    0.30283E-04   -0.20260E-04 10128   0.277E-02    0.527E-02
DAV:  38    -0.762257250088E+03    0.24071E-04   -0.13676E-04 10160   0.232E-02    0.383E-02
DAV:  39    -0.762257230843E+03    0.19245E-04   -0.84693E-05  9792   0.182E-02    0.207E-02
DAV:  40    -0.762257229859E+03    0.98447E-06   -0.25787E-05  6680   0.992E-03
   1 F= -.76225723E+03 E0= -.76213434E+03  d E =-.245786E+00
Distance=3.000
 running on   16 total cores
 distrk:  each k-point on    8 cores,    2 groups
 distr:  one band on    4 cores,    2 groups
 using from now: INCAR     
 vasp.5.4.4.18Apr17-6-g9f103f2a35 (build Nov 27 2019 20:08:17) complex          
  
 POSCAR found type information on POSCAR  Ti
 POSCAR found :  1 types and      48 ions
 scaLAPACK will be used

 ----------------------------------------------------------------------------- 
|                                                                             |
|           W    W    AA    RRRRR   N    N  II  N    N   GGGG   !!!           |
|           W    W   A  A   R    R  NN   N  II  NN   N  G    G  !!!           |
|           W    W  A    A  R    R  N N  N  II  N N  N  G       !!!           |
|           W WW W  AAAAAA  RRRRR   N  N N  II  N  N N  G  GGG   !            |
|           WW  WW  A    A  R   R   N   NN  II  N   NN  G    G                |
|           W    W  A    A  R    R  N    N  II  N    N   GGGG   !!!           |
|                                                                             |
|      You have enabled k-point parallelism (KPAR>1).                         |
|      This developmental code was originally  written by Paul Kent at ORNL,  |
|      and carefully double checked in Vienna.                                |
|      GW as well as linear response parallelism added by Martijn Marsman     |
|      and Georg Kresse.                                                      |
|      Carefully verify results versus KPAR=1.                                |
|      Report problems to Paul Kent and Vienna.                               |
|                                                                             |
 ----------------------------------------------------------------------------- 

 LDA part: xc-table for Pade appr. of Perdew
 POSCAR found type information on POSCAR  Ti
 POSCAR found :  1 types and      48 ions
 POSCAR, INCAR and KPOINTS ok, starting setup
 FFT: planning ...
 WAVECAR not read
 entering main loop
       N       E                     dE             d eps       ncg     rms          rms(c)
DAV:   1     0.889062097258E+03    0.88906E+03   -0.53366E+04  2196   0.108E+03
DAV:   2    -0.247594892560E+03   -0.11367E+04   -0.10939E+04  2196   0.240E+02
DAV:   3    -0.416486060973E+03   -0.16889E+03   -0.15978E+03  3488   0.831E+01
DAV:   4    -0.429942690131E+03   -0.13457E+02   -0.12604E+02  3440   0.264E+01
DAV:   5    -0.430908583758E+03   -0.96589E+00   -0.91782E+00  3632   0.570E+00    0.784E+01
DAV:   6    -0.557215022624E+03   -0.12631E+03   -0.23791E+03  4206   0.761E+01    0.114E+02
DAV:   7    -0.389773325155E+03    0.16744E+03   -0.45716E+03  3990   0.157E+02    0.415E+01
DAV:   8    -0.365379424698E+03    0.24394E+02   -0.50603E+02  3384   0.609E+01    0.323E+01
DAV:   9    -0.359384841183E+03    0.59946E+01   -0.41902E+01  3736   0.118E+01    0.263E+01
[...]
DAV:  46    -0.738618812069E+03    0.15874E-04   -0.53003E-05  9312   0.140E-02    0.793E-02
DAV:  47    -0.738618753004E+03    0.59065E-04   -0.70702E-05  9536   0.153E-02    0.424E-02
DAV:  48    -0.738618744128E+03    0.88758E-05   -0.85101E-06  5256   0.673E-03    0.361E-02
DAV:  49    -0.738618736654E+03    0.74739E-05   -0.36135E-06  4200   0.410E-03    0.304E-02
DAV:  50    -0.738618729758E+03    0.68967E-05   -0.21938E-06  4008   0.277E-03    0.235E-02
DAV:  51    -0.738618720748E+03    0.90095E-05   -0.89518E-06  4528   0.483E-03    0.551E-03
DAV:  52    -0.738618720538E+03    0.20988E-06   -0.24286E-06  3936   0.306E-03
   1 F= -.73861872E+03 E0= -.73847711E+03  d E =-.283215E+00
Distance=10.000
 running on   16 total cores
 distrk:  each k-point on    8 cores,    2 groups
 distr:  one band on    4 cores,    2 groups
 using from now: INCAR     
 vasp.5.4.4.18Apr17-6-g9f103f2a35 (build Nov 27 2019 20:08:17) complex          
  
 POSCAR found type information on POSCAR  Ti
 POSCAR found :  1 types and      48 ions
 scaLAPACK will be used

 ----------------------------------------------------------------------------- 
|                                                                             |
|           W    W    AA    RRRRR   N    N  II  N    N   GGGG   !!!           |
|           W    W   A  A   R    R  NN   N  II  NN   N  G    G  !!!           |
|           W    W  A    A  R    R  N N  N  II  N N  N  G       !!!           |
|           W WW W  AAAAAA  RRRRR   N  N N  II  N  N N  G  GGG   !            |
|           WW  WW  A    A  R   R   N   NN  II  N   NN  G    G                |
|           W    W  A    A  R    R  N    N  II  N    N   GGGG   !!!           |
|                                                                             |
|      You have enabled k-point parallelism (KPAR>1).                         |
|      This developmental code was originally  written by Paul Kent at ORNL,  |
|      and carefully double checked in Vienna.                                |
|      GW as well as linear response parallelism added by Martijn Marsman     |
|      and Georg Kresse.                                                      |
|      Carefully verify results versus KPAR=1.                                |
|      Report problems to Paul Kent and Vienna.                               |
|                                                                             |
 ----------------------------------------------------------------------------- 

 LDA part: xc-table for Pade appr. of Perdew
 POSCAR found type information on POSCAR  Ti
 POSCAR found :  1 types and      48 ions
 POSCAR, INCAR and KPOINTS ok, starting setup
 FFT: planning ...
 WAVECAR not read
 entering main loop
       N       E                     dE             d eps       ncg     rms          rms(c)
DAV:   1     0.899554493196E+03    0.89955E+03   -0.50261E+04  2196   0.997E+02
DAV:   2    -0.258592441215E+03   -0.11581E+04   -0.11074E+04  2276   0.230E+02
DAV:   3    -0.417213004350E+03   -0.15862E+03   -0.15035E+03  3492   0.788E+01
DAV:   4    -0.429914038331E+03   -0.12701E+02   -0.11912E+02  3400   0.250E+01
DAV:   5    -0.430908668311E+03   -0.99463E+00   -0.94980E+00  3640   0.588E+00    0.784E+01
DAV:   6    -0.564016995926E+03   -0.13311E+03   -0.24477E+03  4202   0.769E+01    0.115E+02
DAV:   7    -0.418603363326E+03    0.14541E+03   -0.55019E+03  3958   0.171E+02    0.471E+01
DAV:   8    -0.367097108906E+03    0.51506E+02   -0.63706E+02  3336   0.723E+01    0.345E+01
DAV:   9    -0.365403519530E+03    0.16936E+01   -0.62607E+01  3696   0.174E+01    0.312E+01
DAV:  10    -0.362320626516E+03    0.30829E+01   -0.52893E+00  3560   0.531E+00    0.288E+01
DAV:  11    -0.355880590235E+03    0.64400E+01   -0.42708E+00  3128   0.593E+00    0.225E+01
DAV:  12    -0.345006399956E+03    0.10874E+02   -0.39359E+01  3424   0.166E+01    0.501E+00
DAV:  13    -0.345192918661E+03   -0.18652E+00   -0.18580E+00  3584   0.255E+00    0.480E+00
DAV:  14    -0.344891608179E+03    0.30131E+00   -0.15264E+00  3232   0.314E+00    0.450E+00
DAV:  15    -0.344875930925E+03    0.15677E-01   -0.15321E+00  3160   0.354E+00    0.381E+00
DAV:  16    -0.344797421349E+03    0.78510E-01   -0.37723E-01  3280   0.150E+00    0.234E+00
DAV:  17    -0.344742610019E+03    0.54811E-01   -0.11478E-01  3624   0.624E-01    0.997E-01
DAV:  18    -0.344736366014E+03    0.62440E-02   -0.51529E-02  3360   0.547E-01    0.281E-01
DAV:  19    -0.344745824845E+03   -0.94588E-02   -0.43108E-02  3616   0.332E-01    0.465E-01
DAV:  20    -0.344747898636E+03   -0.20738E-02   -0.31044E-02  3294   0.442E-01    0.209E-01
DAV:  21    -0.344749632137E+03   -0.17335E-02   -0.26958E-03  3088   0.122E-01    0.165E-01
DAV:  22    -0.344752283270E+03   -0.26511E-02   -0.46341E-03  3556   0.115E-01    0.118E-01
DAV:  23    -0.344752915557E+03   -0.63229E-03   -0.98098E-04  3160   0.983E-02    0.478E-02
DAV:  24    -0.344753590853E+03   -0.67530E-03   -0.25281E-04  3288   0.356E-02    0.240E-02
DAV:  25    -0.344754032786E+03   -0.44193E-03   -0.11765E-04  2656   0.309E-02    0.150E-02
DAV:  26    -0.344754207872E+03   -0.17509E-03   -0.11352E-04  3448   0.211E-02    0.249E-02
DAV:  27    -0.344754283256E+03   -0.75384E-04   -0.26563E-05  2352   0.128E-02    0.120E-02
DAV:  28    -0.344754356094E+03   -0.72838E-04   -0.39746E-05  2816   0.122E-02    0.784E-03
DAV:  29    -0.344754387951E+03   -0.31856E-04   -0.30731E-06  1696   0.563E-03    0.545E-03
DAV:  30    -0.344754414222E+03   -0.26271E-04   -0.28388E-06  1648   0.317E-03    0.301E-03
DAV:  31    -0.344754420747E+03   -0.65256E-05   -0.10048E-06  1544   0.206E-03    0.271E-03
DAV:  32    -0.344754431306E+03   -0.10559E-04   -0.24407E-06  1520   0.446E-03    0.290E-03
DAV:  33    -0.344754439195E+03   -0.78884E-05   -0.95278E-07  1480   0.233E-03    0.178E-03
DAV:  34    -0.344754441965E+03   -0.27702E-05   -0.27978E-07  1438   0.107E-03
   1 F= -.34475444E+03 E0= -.34469942E+03  d E =-.110044E+00
 running on   16 total cores
 distrk:  each k-point on    8 cores,    2 groups
 distr:  one band on    4 cores,    2 groups
 using from now: INCAR     
 vasp.5.4.4.18Apr17-6-g9f103f2a35 (build Nov 27 2019 20:08:17) complex          
  
 POSCAR found type information on POSCAR  Ti
 POSCAR found :  1 types and      54 ions
 scaLAPACK will be used

 ----------------------------------------------------------------------------- 
|                                                                             |
|           W    W    AA    RRRRR   N    N  II  N    N   GGGG   !!!           |
|           W    W   A  A   R    R  NN   N  II  NN   N  G    G  !!!           |
|           W    W  A    A  R    R  N N  N  II  N N  N  G       !!!           |
|           W WW W  AAAAAA  RRRRR   N  N N  II  N  N N  G  GGG   !            |
|           WW  WW  A    A  R   R   N   NN  II  N   NN  G    G                |
|           W    W  A    A  R    R  N    N  II  N    N   GGGG   !!!           |
|                                                                             |
|      You have enabled k-point parallelism (KPAR>1).                         |
|      This developmental code was originally  written by Paul Kent at ORNL,  |
|      and carefully double checked in Vienna.                                |
|      GW as well as linear response parallelism added by Martijn Marsman     |
|      and Georg Kresse.                                                      |
|      Carefully verify results versus KPAR=1.                                |
|      Report problems to Paul Kent and Vienna.                               |
|                                                                             |
 ----------------------------------------------------------------------------- 

 LDA part: xc-table for Pade appr. of Perdew
 POSCAR found type information on POSCAR  Ti
 POSCAR found :  1 types and      54 ions
 POSCAR, INCAR and KPOINTS ok, starting setup
 FFT: planning ...
 WAVECAR not read
 WARNING: random wavefunctions but no delay for mixing, default for NELMDL
 entering main loop
       N       E                     dE             d eps       ncg     rms          rms(c)
DAV:   1     0.112759415178E+04    0.11276E+04   -0.58770E+04  1632   0.103E+03
DAV:   2    -0.305970109144E+03   -0.14336E+04   -0.13645E+04  1752   0.242E+02
DAV:   3    -0.488802185938E+03   -0.18283E+03   -0.16957E+03  2432   0.864E+01
DAV:   4    -0.501404027073E+03   -0.12602E+02   -0.11672E+02  2408   0.271E+01
DAV:   5    -0.502323355903E+03   -0.91933E+00   -0.88268E+00  2704   0.575E+00    0.979E+01
DAV:   6    -0.777018224304E+03   -0.27469E+03   -0.41756E+03  3088   0.938E+01    0.131E+02
DAV:   7    -0.486994838212E+03    0.29002E+03   -0.82334E+03  3000   0.185E+02    0.529E+01
DAV:   8    -0.426182967486E+03    0.60812E+02   -0.95642E+02  2368   0.916E+01    0.459E+01
DAV:   9    -0.424730297022E+03    0.14527E+01   -0.74088E+01  2712   0.193E+01    0.420E+01
DAV:  10    -0.422182900467E+03    0.25474E+01   -0.52986E+00  2648   0.435E+00    0.402E+01
DAV:  11    -0.419431042394E+03    0.27519E+01   -0.11368E+00  2472   0.244E+00    0.377E+01
DAV:  12    -0.395442505520E+03    0.23989E+02   -0.61387E+01  2408   0.215E+01    0.101E+01
DAV:  13    -0.395417202630E+03    0.25303E-01   -0.19613E+00  2552   0.309E+00    0.924E+00
DAV:  14    -0.394751980307E+03    0.66522E+00   -0.79990E-01  2480   0.233E+00    0.758E+00
DAV:  15    -0.393894926491E+03    0.85705E+00   -0.53939E+00  2288   0.660E+00    0.291E+00
DAV:  16    -0.393860590606E+03    0.34336E-01   -0.26383E-01  2280   0.117E+00    0.221E+00
DAV:  17    -0.393849235088E+03    0.11356E-01   -0.62347E-02  2760   0.424E-01    0.148E+00
DAV:  18    -0.393855615482E+03   -0.63804E-02   -0.18449E-01  2408   0.107E+00    0.112E+00
DAV:  19    -0.393848961167E+03    0.66543E-02   -0.14727E-01  2528   0.727E-01    0.535E-01
DAV:  20    -0.393848763527E+03    0.19764E-03   -0.14388E-02  2336   0.338E-01    0.480E-01
DAV:  21    -0.393852189254E+03   -0.34257E-02   -0.12048E-02  2136   0.291E-01    0.247E-01
DAV:  22    -0.393854811943E+03   -0.26227E-02   -0.83200E-03  2312   0.227E-01    0.134E-01
DAV:  23    -0.393855053167E+03   -0.24122E-03   -0.15875E-03  2256   0.113E-01    0.116E-01
DAV:  24    -0.393856583534E+03   -0.15304E-02   -0.13380E-03  2240   0.891E-02    0.101E-01
DAV:  25    -0.393856955713E+03   -0.37218E-03   -0.11697E-03  2384   0.834E-02    0.346E-02
DAV:  26    -0.393857207555E+03   -0.25184E-03   -0.11882E-04  2320   0.238E-02    0.858E-03
DAV:  27    -0.393857440809E+03   -0.23325E-03   -0.53490E-05  2040   0.184E-02    0.237E-02
DAV:  28    -0.393857504330E+03   -0.63521E-04   -0.85846E-05  2328   0.234E-02    0.993E-03
DAV:  29    -0.393857547541E+03   -0.43211E-04   -0.86724E-06  1200   0.821E-03    0.378E-03
DAV:  30    -0.393857575423E+03   -0.27882E-04   -0.50568E-06  1104   0.416E-03    0.247E-03
DAV:  31    -0.393857591300E+03   -0.15876E-04   -0.17197E-06  1048   0.388E-03    0.255E-03
DAV:  32    -0.393857609722E+03   -0.18423E-04   -0.11710E-06  1064   0.172E-03    0.254E-03
DAV:  33    -0.393857615727E+03   -0.60047E-05   -0.68648E-07  1008   0.263E-03    0.156E-03
DAV:  34    -0.393857619641E+03   -0.39139E-05   -0.23810E-07   992   0.120E-03
   1 F= -.39385762E+03 E0= -.39377069E+03  d E =-.173864E+00
 running on   16 total cores
 distrk:  each k-point on    8 cores,    2 groups
 distr:  one band on    4 cores,    2 groups
 using from now: INCAR     
 vasp.5.4.4.18Apr17-6-g9f103f2a35 (build Nov 27 2019 20:08:17) complex          
  
 POSCAR found type information on POSCAR  Ti
 POSCAR found :  1 types and     102 ions
 scaLAPACK will be used

 ----------------------------------------------------------------------------- 
|                                                                             |
|           W    W    AA    RRRRR   N    N  II  N    N   GGGG   !!!           |
|           W    W   A  A   R    R  NN   N  II  NN   N  G    G  !!!           |
|           W    W  A    A  R    R  N N  N  II  N N  N  G       !!!           |
|           W WW W  AAAAAA  RRRRR   N  N N  II  N  N N  G  GGG   !            |
|           WW  WW  A    A  R   R   N   NN  II  N   NN  G    G                |
|           W    W  A    A  R    R  N    N  II  N    N   GGGG   !!!           |
|                                                                             |
|      You have enabled k-point parallelism (KPAR>1).                         |
|      This developmental code was originally  written by Paul Kent at ORNL,  |
|      and carefully double checked in Vienna.                                |
|      GW as well as linear response parallelism added by Martijn Marsman     |
|      and Georg Kresse.                                                      |
|      Carefully verify results versus KPAR=1.                                |
|      Report problems to Paul Kent and Vienna.                               |
|                                                                             |
 ----------------------------------------------------------------------------- 

 LDA part: xc-table for Pade appr. of Perdew
 POSCAR found type information on POSCAR  Ti
 POSCAR found :  1 types and     102 ions
 POSCAR, INCAR and KPOINTS ok, starting setup
 FFT: planning ...
 WAVECAR not read
 WARNING: random wavefunctions but no delay for mixing, default for NELMDL
 entering main loop
       N       E                     dE             d eps       ncg     rms          rms(c)
DAV:   1     0.194900084239E+04    0.19490E+04   -0.11619E+05  6656   0.114E+03
DAV:   2    -0.533268497189E+03   -0.24823E+04   -0.23928E+04  6656   0.254E+02
DAV:   3    -0.918674504912E+03   -0.38541E+03   -0.36273E+03 10088   0.918E+01
DAV:   4    -0.948111608728E+03   -0.29437E+02   -0.27406E+02  9928   0.287E+01
DAV:   5    -0.949711512653E+03   -0.15999E+01   -0.15472E+01 10560   0.566E+00    0.128E+02
DAV:   6    -0.782693803836E+04   -0.68772E+04   -0.67896E+04  9776   0.115E+02    0.233E+02
DAV:   7    -0.881049845433E+03    0.69459E+04   -0.15655E+04 11560   0.131E+02    0.138E+02
DAV:   8    -0.809251247318E+03    0.71799E+02   -0.12327E+04 12600   0.202E+02    0.612E+01
DAV:   9    -0.839516433080E+03   -0.30265E+02   -0.22735E+03 10504   0.924E+01    0.676E+01
DAV:  10    -0.786541463937E+03    0.52975E+02   -0.41778E+02 11776   0.455E+01    0.487E+01
DAV:  11    -0.779461106348E+03    0.70804E+01   -0.11552E+02 11656   0.212E+01    0.465E+01
DAV:  12    -0.774853956829E+03    0.46071E+01   -0.32178E+01 11568   0.136E+01    0.429E+01
DAV:  13    -0.767838555964E+03    0.70154E+01   -0.34623E+01 11296   0.103E+01    0.360E+01
DAV:  14    -0.756813078252E+03    0.11025E+02   -0.27460E+01 11000   0.903E+00    0.296E+01
DAV:  15    -0.753349202493E+03    0.34639E+01   -0.26477E+01 11800   0.979E+00    0.270E+01
DAV:  16    -0.744986788489E+03    0.83624E+01   -0.23632E+01 10792   0.105E+01    0.179E+01
DAV:  17    -0.748610829139E+03   -0.36240E+01   -0.13324E+01 10752   0.599E+00    0.229E+01
DAV:  18    -0.746443564842E+03    0.21673E+01   -0.18879E+00 10744   0.160E+00    0.196E+01
DAV:  19    -0.751343990357E+03   -0.49004E+01   -0.10308E+01 10744   0.435E+00    0.266E+01
DAV:  20    -0.744874329961E+03    0.64697E+01   -0.58308E+00 10600   0.337E+00    0.189E+01
DAV:  21    -0.741407830912E+03    0.34665E+01   -0.45707E+00 10152   0.326E+00    0.121E+01
DAV:  22    -0.740424411656E+03    0.98342E+00   -0.19248E+00 10472   0.220E+00    0.957E+00
DAV:  23    -0.740381444542E+03    0.42967E-01   -0.10449E+00 10520   0.168E+00    0.101E+01
DAV:  24    -0.740575358288E+03   -0.19391E+00   -0.72759E-01 10424   0.127E+00    0.109E+01
DAV:  25    -0.740647806746E+03   -0.72448E-01   -0.42673E-01 10744   0.116E+00    0.111E+01
DAV:  26    -0.740301853462E+03    0.34595E+00   -0.32226E-01 10864   0.714E-01    0.990E+00
DAV:  27    -0.739601869989E+03    0.69998E+00   -0.56805E-01 10680   0.681E-01    0.718E+00
DAV:  28    -0.739078976529E+03    0.52289E+00   -0.54852E-01 10480   0.694E-01    0.488E+00
DAV:  29    -0.738990649620E+03    0.88327E-01   -0.76462E-02 10296   0.420E-01    0.445E+00
DAV:  30    -0.738941247416E+03    0.49402E-01   -0.26460E-02 10296   0.254E-01    0.419E+00
DAV:  31    -0.738823743448E+03    0.11750E+00   -0.71018E-02 10536   0.313E-01    0.346E+00
DAV:  32    -0.738707362410E+03    0.11638E+00   -0.11616E-01 10440   0.367E-01    0.240E+00
DAV:  33    -0.738634453169E+03    0.72909E-01   -0.10120E-01 10536   0.355E-01    0.129E+00
DAV:  34    -0.738625917145E+03    0.85360E-02   -0.12514E-02 10624   0.189E-01    0.108E+00
DAV:  35    -0.738622291407E+03    0.36257E-02   -0.76388E-03 10448   0.153E-01    0.942E-01
DAV:  36    -0.738615701725E+03    0.65897E-02   -0.33776E-02 10232   0.240E-01    0.557E-01
DAV:  37    -0.738615087763E+03    0.61396E-03   -0.23714E-02 10296   0.209E-01    0.223E-01
DAV:  38    -0.738615610103E+03   -0.52234E-03   -0.35985E-03 10080   0.113E-01    0.179E-01
DAV:  39    -0.738616435173E+03   -0.82507E-03   -0.17428E-03 10232   0.748E-02    0.202E-01
DAV:  40    -0.738616668302E+03   -0.23313E-03   -0.89243E-04 10312   0.573E-02    0.182E-01
DAV:  41    -0.738616719833E+03   -0.51531E-04   -0.90201E-04 10208   0.564E-02    0.131E-01
DAV:  42    -0.738616792540E+03   -0.72707E-04   -0.63185E-04  9824   0.438E-02    0.637E-02
DAV:  43    -0.738616946408E+03   -0.15387E-03   -0.40641E-04  9712   0.395E-02    0.770E-02
DAV:  44    -0.738616986678E+03   -0.40270E-04   -0.85367E-05  9752   0.179E-02    0.744E-02
DAV:  45    -0.738616982427E+03    0.42514E-05   -0.52829E-05  8904   0.144E-02    0.618E-02
DAV:  46    -0.738616959437E+03    0.22990E-04   -0.59753E-05  9400   0.144E-02    0.417E-02
DAV:  47    -0.738616953037E+03    0.63999E-05   -0.43744E-05  9048   0.128E-02    0.349E-02
DAV:  48    -0.738616957312E+03   -0.42748E-05   -0.71212E-06  4904   0.651E-03
   1 F= -.73861696E+03 E0= -.73847561E+03  d E =-.282686E+00

DISTANCE=0.500
E_alpha= -344.761484  E_beta= -393.862695  E_total= -361.103396 
W_seq=377.520783

DISTANCE=1.000
E_alpha= -344.756418  E_beta= -393.859205  E_total= -672.874745 
W_seq=65.740878

DISTANCE=1.500
E_alpha= -344.754914  E_beta= -393.859033  E_total= -757.664880 
W_seq=-19.050933

DISTANCE=2.000
E_alpha= -344.754663  E_beta= -393.858201  E_total= -765.930576 
W_seq=-27.317712

DISTANCE=2.500
E_alpha= -344.754639  E_beta= -393.857835  E_total= -762.257230 
W_seq=-23.644756

DISTANCE=3.000
E_alpha= -344.754466  E_beta= -393.858752  E_total= -756.653300 
W_seq=-18.040082

DISTANCE=3.500
E_alpha= -344.754614  E_beta= -393.857760  E_total= -751.377530 
W_seq=-12.765156

DISTANCE=4.000
E_alpha= -344.754554  E_beta= -393.857677  E_total= -747.024176 
W_seq=-8.411945

DISTANCE=4.500
E_alpha= -344.754575  E_beta= -393.857862  E_total= -743.821559 
W_seq=-5.209122

DISTANCE=5.000
E_alpha= -344.754567  E_beta= -393.857663  E_total= -741.641397 
W_seq=-3.029167

DISTANCE=5.500
E_alpha= -344.754488  E_beta= -393.857995  E_total= -740.239725 
W_seq=-1.627242

DISTANCE=6.000
E_alpha= -344.754492  E_beta= -393.857862  E_total= -739.394629 
W_seq=-0.782275

DISTANCE=6.500
E_alpha= -344.754478  E_beta= -393.858241  E_total= -738.940487 
W_seq=-0.327768

DISTANCE=7.000
E_alpha= -344.754428  E_beta= -393.857690  E_total= -738.741129 
W_seq=-0.129011

DISTANCE=7.500
E_alpha= -344.754374  E_beta= -393.858705  E_total= -738.669233 
W_seq=-0.056154

DISTANCE=8.000
E_alpha= -344.754372  E_beta= -393.857678  E_total= -738.639566 
W_seq=-0.027516

DISTANCE=8.500
E_alpha= -344.754453  E_beta= -393.857676  E_total= -738.627413 
W_seq=-0.015284

DISTANCE=9.000
E_alpha= -344.754400  E_beta= -393.857536  E_total= -738.621343 
W_seq=-0.009407

DISTANCE=9.500
E_alpha= -344.754449  E_beta= -393.857745  E_total= -738.618721 
W_seq=-0.006527

DISTANCE=10.000
E_alpha= -344.754442  E_beta= -393.857620  E_total= -738.616957 
W_seq=-0.004895

