 vasp.5.4.1 24Jun15 (build Aug 19 2019 16:40:33) complex                        
  
 executed on           IFC91_ompi date 2020.05.13  09:37:21
 running on   72 total cores
 distrk:  each k-point on   24 cores,    3 groups
 distr:  one band on NCORES_PER_BAND=  12 cores,    2 groups


--------------------------------------------------------------------------------------------------------


 INCAR:
 POTCAR:    PAW_PBE Ti 08Apr2002                  
 POTCAR:    PAW_PBE Mo_sv 02Feb2006               

 ----------------------------------------------------------------------------- 
|                                                                             |
|           W    W    AA    RRRRR   N    N  II  N    N   GGGG   !!!           |
|           W    W   A  A   R    R  NN   N  II  NN   N  G    G  !!!           |
|           W    W  A    A  R    R  N N  N  II  N N  N  G       !!!           |
|           W WW W  AAAAAA  RRRRR   N  N N  II  N  N N  G  GGG   !            |
|           WW  WW  A    A  R   R   N   NN  II  N   NN  G    G                |
|           W    W  A    A  R    R  N    N  II  N    N   GGGG   !!!           |
|                                                                             |
|      You have enabled k-point parallelism (KPAR>1).                         |
|      This developmental code was originally  written by Paul Kent at ORNL,  |
|      and carefully double checked in Vienna.                                |
|      GW as well as linear response parallelism added by Martijn Marsman     |
|      and Georg Kresse.                                                      |
|      Carefully verify results versus KPAR=1.                                |
|      Report problems to Paul Kent and Vienna.                               |
|                                                                             |
 ----------------------------------------------------------------------------- 

 POTCAR:    PAW_PBE Ti 08Apr2002                  
   VRHFIN =Ti: d3 s1                                                            
   LEXCH  = PS                                                                  
   EATOM  =    94.7928 eV,    6.9671 Ry                                         
                                                                                
   TITEL  = PAW_PBE Ti 08Apr2002                                                
   LULTRA =        F    use ultrasoft PP ?                                      
   IUNSCR =        1    unscreen: 0-lin 1-nonlin 2-no                           
   RPACOR =    2.200    partial core radius                                     
   POMASS =   47.880; ZVAL   =    4.000    mass and valenz                      
   RCORE  =    2.800    outmost cutoff radius                                   
   RWIGS  =    2.500; RWIGS  =    1.323    wigner-seitz radius (au A)           
   ENMAX  =  178.330; ENMIN  =  133.747 eV                                      
   RCLOC  =    2.215    cutoff for local pot                                    
   LCOR   =        T    correct aug charges                                     
   LPAW   =        T    paw PP                                                  
   EAUG   =  328.883                                                            
   DEXC   =    0.000                                                            
   RMAX   =    2.868    core radius for proj-oper                               
   RAUG   =    1.300    factor for augmentation sphere                          
   RDEP   =    2.885    radius for radial grids                                 
   RDEPT  =    2.320    core radius for aug-charge                              
                                                                                
   Atomic configuration                                                         
    9 entries                                                                   
     n  l   j            E        occ.                                          
     1  0  0.50     -4865.3608   2.0000                                         
     2  0  0.50      -533.1367   2.0000                                         
     2  1  1.50      -440.5031   6.0000                                         
     3  0  0.50       -59.3186   2.0000                                         
     3  1  1.50       -35.7012   6.0000                                         
     3  2  2.50        -1.9157   3.0000                                         
     4  0  0.50        -3.7291   1.0000                                         
     4  1  1.50        -4.0817   0.0000                                         
     4  3  2.50        -1.3606   0.0000                                         
   Description                                                                  
     l       E           TYP  RCUT    TYP  RCUT                                 
     2     -1.9156924     23  2.800                                             
     2     -0.4062961     23  2.800                                             
     0     -3.7290832     23  2.800                                             
     0     20.4087390     23  2.800                                             
     1     -5.4423304     23  2.800                                             
  local pseudopotential read in
  partial core-charges read in
  partial kinetic energy density read in
  atomic valenz-charges read in
  non local Contribution for L=           2  read in
    real space projection operators read in
  non local Contribution for L=           2  read in
    real space projection operators read in
  non local Contribution for L=           0  read in
    real space projection operators read in
  non local Contribution for L=           0  read in
    real space projection operators read in
  non local Contribution for L=           1  read in
    real space projection operators read in
    PAW grid and wavefunctions read in
 
   number of l-projection  operators is LMAX  =           5
   number of lm-projection operators is LMMAX =          15
 
 POTCAR:    PAW_PBE Mo_sv 02Feb2006               
   VRHFIN =Mo: 4p5s4d                                                           
   LEXCH  = PS                                                                  
   EATOM  =  1862.2866 eV,  136.8742 Ry                                         
                                                                                
   TITEL  = PAW_PBE Mo_sv 02Feb2006                                             
   LULTRA =        F    use ultrasoft PP ?                                      
   IUNSCR =        1    unscreen: 0-lin 1-nonlin 2-no                           
   RPACOR =    2.200    partial core radius                                     
   POMASS =   95.940; ZVAL   =   14.000    mass and valenz                      
   RCORE  =    2.500    outmost cutoff radius                                   
   RWIGS  =    2.750; RWIGS  =    1.455    wigner-seitz radius (au A)           
   ENMAX  =  242.676; ENMIN  =  182.007 eV                                      
   ICORE  =        3    local potential                                         
   LCOR   =        T    correct aug charges                                     
   LPAW   =        T    paw PP                                                  
   EAUG   =  446.014                                                            
   DEXC   =    0.000                                                            
   RMAX   =    2.563    core radius for proj-oper                               
   RAUG   =    1.300    factor for augmentation sphere                          
   RDEP   =    2.641    radius for radial grids                                 
   RDEPT  =    2.031    core radius for aug-charge                              
                                                                                
   Atomic configuration                                                         
   11 entries                                                                   
     n  l   j            E        occ.                                          
     1  0  0.50    -19819.0341   2.0000                                         
     2  0  0.50     -2799.0127   2.0000                                         
     2  1  1.50     -2502.0276   6.0000                                         
     3  0  0.50      -476.4449   2.0000                                         
     3  1  1.50      -379.1496   6.0000                                         
     3  2  2.50      -220.9367  10.0000                                         
     4  0  0.50       -64.3378   2.0000                                         
     5  0  0.50        -4.0862   1.0000                                         
     4  1  1.50       -38.4773   6.0000                                         
     4  2  2.50        -3.7535   5.0000                                         
     4  3  2.50        -1.3606   0.0000                                         
   Description                                                                  
     l       E           TYP  RCUT    TYP  RCUT                                 
     0    -64.3377829     23  2.100                                             
     0     -4.0861640     23  2.400                                             
     1    -38.4772993     23  2.100                                             
     1     13.6058260     23  2.100                                             
     2     -3.7534941     23  2.400                                             
     2     -5.1140767     23  2.400                                             
     3     -4.0817478     23  2.500                                             
  local pseudopotential read in
  partial core-charges read in
  partial kinetic energy density read in
  atomic valenz-charges read in
  non local Contribution for L=           0  read in
    real space projection operators read in
  non local Contribution for L=           0  read in
    real space projection operators read in
  non local Contribution for L=           1  read in
    real space projection operators read in
  non local Contribution for L=           1  read in
    real space projection operators read in
  non local Contribution for L=           2  read in
    real space projection operators read in
  non local Contribution for L=           2  read in
    real space projection operators read in
    PAW grid and wavefunctions read in
 
   number of l-projection  operators is LMAX  =           6
   number of lm-projection operators is LMMAX =          18
 
 Optimization of the real space projectors (new method)

 maximal supplied QI-value         = 13.42
 optimisation between [QCUT,QGAM] = [  9.93, 19.86] = [ 27.60,110.42] Ry 
 Optimized for a Real-space Cutoff    1.59 Angstroem

   l    n(q)    QCUT    max X(q) W(low)/X(q) W(high)/X(q)  e(spline) 
   2      9     9.929    49.363    0.27E-03    0.79E-03    0.35E-06
   2      9     9.929    47.669    0.26E-03    0.77E-03    0.34E-06
   0      9     9.929    26.374    0.19E-03    0.47E-04    0.12E-06
   0      9     9.929    11.549    0.15E-03    0.39E-04    0.96E-07
   1      9     9.929     9.492    0.16E-04    0.78E-04    0.41E-07
 Optimization of the real space projectors (new method)

 maximal supplied QI-value         = 15.12
 optimisation between [QCUT,QGAM] = [  9.98, 19.96] = [ 27.88,111.51] Ry 
 Optimized for a Real-space Cutoff    1.55 Angstroem

   l    n(q)    QCUT    max X(q) W(low)/X(q) W(high)/X(q)  e(spline) 
   0      9     9.978     3.559    0.34E-04    0.66E-04    0.47E-07
   0      9     9.978    20.730    0.60E-04    0.62E-04    0.58E-07
   1      9     9.978     3.279    0.56E-05    0.17E-04    0.26E-07
   1      9     9.978     4.693    0.29E-03    0.37E-04    0.20E-06
   2      8     9.978    67.616    0.32E-03    0.40E-03    0.40E-06
   2      8     9.978    62.420    0.32E-03    0.40E-03    0.40E-06
  PAW_PBE Ti 08Apr2002                  :
 energy of atom  1       EATOM=  -94.7928
 kinetic energy error for atom=    0.0007 (will be added to EATOM!!)
  PAW_PBE Mo_sv 02Feb2006               :
 energy of atom  2       EATOM=-1862.2866
 kinetic energy error for atom=    0.0265 (will be added to EATOM!!)
 
 
 POSCAR: Ti96 Mo1                                
  positions in direct lattice
  velocities in cartesian coordinates
 exchange correlation table for  LEXCH =       14
   RHO(1)=    0.500       N(1)  =     2000
   RHO(2)=  100.500       N(2)  =     4000

 VTST: version 3.2, (02/03/18)

 CHAIN: initializing optimizer
 
 OPT: Using VASP Conjugate-Gradient optimizer
 CHAIN: Read ICHAIN            0
 
 POSCAR: Ti96 Mo1                                
  positions in direct lattice
  velocities in cartesian coordinates
 


--------------------------------------------------------------------------------------------------------


 ion  position               nearest neighbor table
   1  0.135  0.381  0.409-  25 2.76  14 2.82  82 2.83  39 2.86  85 2.86  87 2.88  13 2.93  27 2.96
                            81 2.97  73 3.08  40 3.16
   2  0.642  0.360  0.414-  86 2.66  28 2.75  81 2.76  26 2.77  40 2.84  38 2.91  88 2.97  13 2.97
                            74 2.98  14 3.03  82 3.06
   3  0.167  0.890  0.402-  83 2.67  16 2.75  27 2.79  15 2.82  37 2.86  87 2.86  25 2.88  85 2.89
                            84 2.90   7 3.02  39 3.05
   4  0.641  0.932  0.421-  97 2.53  86 2.60  26 2.76  84 2.79  15 2.81  83 2.81  38 2.84  88 2.87
                            76 2.99  37 3.16
   5  0.157  0.382  0.237-  13 2.71  25 2.74  18 2.74  31 2.82  43 2.82  14 2.88  17 2.90  29 2.93
                             9 2.96  41 3.04  27 3.09
   6  0.660  0.372  0.230-  28 2.68  17 2.69  26 2.78  30 2.79  14 2.79  18 2.81  10 2.82  32 2.83
                            44 2.85  42 2.86  13 3.08
   7  0.166  0.877  0.239-  16 2.76  41 2.82  27 2.83  20 2.83  19 2.85  43 2.86  29 2.90  31 2.92
                            15 2.96  25 2.98  11 2.99   3 3.02
   8  0.653  0.890  0.234-  97 2.50  19 2.68  30 2.72  15 2.81  26 2.84  42 2.85  20 2.90  12 2.90
                            32 2.95  16 3.08
   9  0.167  0.375  0.078-  22 2.78  18 2.78  21 2.78  17 2.78  45 2.82  47 2.82  33 2.86  35 2.86
                            29 2.86  31 2.86   5 2.96  57 3.13
  10  0.667  0.375  0.078-  21 2.78  17 2.78  22 2.78  18 2.78   6 2.82  46 2.82  48 2.82  34 2.86
                            36 2.86  30 2.86  32 2.86  58 3.13
  11  0.167  0.875  0.078-  24 2.78  20 2.78  23 2.78  19 2.78  45 2.82  47 2.82  33 2.86  35 2.86
                            29 2.86  31 2.86   7 2.99  59 3.13
  12  0.667  0.875  0.078-  23 2.78  19 2.78  24 2.78  20 2.78  46 2.82  48 2.82  34 2.86  36 2.86
                            30 2.86  32 2.86   8 2.90  60 3.13
  13  0.389  0.355  0.320-   5 2.71  28 2.71  41 2.74  37 2.76  26 2.86  39 2.88   1 2.93   2 2.97
                            43 2.98  17 3.08   6 3.08
  14  0.898  0.361  0.317-  40 2.76  38 2.77  42 2.78   6 2.79   1 2.82  44 2.84  25 2.86   5 2.88
                            18 3.01   2 3.03  27 3.17
  15  0.423  0.853  0.327-  39 2.79   4 2.81   8 2.81   3 2.82  43 2.83  28 2.95   7 2.96  37 2.96
                            83 3.02  41 3.09  26 3.17  97 3.26
  16  0.927  0.924  0.321-  97 2.36  42 2.68  25 2.71  38 2.75   3 2.75   7 2.76  27 2.95  84 2.98
                             8 3.08  20 3.10
  17  0.417  0.375  0.155-   6 2.69  10 2.78   9 2.78  30 2.82  32 2.82  45 2.86  47 2.86  21 2.88
                             5 2.90  43 2.90  41 2.93  13 3.08
  18  0.917  0.375  0.155-  44 2.72   5 2.74   9 2.78  10 2.78  42 2.79   6 2.81  29 2.82  31 2.82
                            46 2.86  48 2.86  22 2.88  14 3.01
  19  0.417  0.875  0.155-   8 2.68  12 2.78  11 2.78  41 2.82  32 2.82  30 2.82   7 2.85  45 2.86
                            47 2.86  23 2.88  43 2.92
  20  0.917  0.875  0.155-  11 2.78  12 2.78  29 2.82  31 2.82   7 2.83  42 2.83  46 2.86  48 2.86
                            24 2.88   8 2.90  44 2.95  16 3.10
  21  0.417  0.375  0.000-  58 2.59  10 2.78   9 2.78  36 2.82  34 2.82  47 2.86  45 2.86  17 2.88
                            61 2.90  63 2.90
  22  0.917  0.375  0.000-  57 2.59   9 2.78  10 2.78  35 2.82  33 2.82  48 2.86  46 2.86  18 2.88
                            62 2.90  64 2.90
  23  0.417  0.875  0.000-  60 2.59  12 2.78  11 2.78  36 2.82  34 2.82  47 2.86  45 2.86  19 2.88
                            61 2.90  63 2.90
  24  0.917  0.875  0.000-  59 2.59  11 2.78  12 2.78  35 2.82  33 2.82  48 2.86  46 2.86  20 2.88
                            62 2.90  64 2.90
  25  0.111  0.145  0.320-  41 2.71  16 2.71   5 2.74   1 2.76  14 2.86   3 2.88  37 2.93  38 2.97
                             7 2.98  29 3.08  42 3.08
  26  0.602  0.139  0.317-   4 2.76   2 2.77   6 2.78  42 2.79  37 2.82   8 2.84  13 2.86  41 2.88
                            30 3.01  38 3.03  15 3.17
  27  0.077  0.647  0.327-   3 2.79  40 2.81  44 2.81  39 2.82   7 2.83  16 2.95  43 2.96   1 2.96
                            87 3.02   5 3.09  14 3.17  97 3.26
  28  0.573  0.576  0.321-  97 2.36   6 2.68  13 2.71   2 2.75  39 2.75  43 2.76  15 2.95  88 2.98
                            44 3.08  32 3.10
  29  0.083  0.125  0.155-  42 2.69  45 2.78  46 2.78  20 2.82  18 2.82  11 2.86   9 2.86  33 2.88
                            41 2.90   7 2.90   5 2.93  25 3.08
  30  0.583  0.125  0.155-   8 2.72  41 2.74  45 2.78  46 2.78   6 2.79  42 2.81  17 2.82  19 2.82
                            10 2.86  12 2.86  34 2.88  26 3.01
  31  0.083  0.625  0.155-  44 2.68  47 2.78  48 2.78   5 2.82  20 2.82  18 2.82  43 2.85   9 2.86
                            11 2.86  35 2.88   7 2.92
  32  0.583  0.625  0.155-  47 2.78  48 2.78  17 2.82  19 2.82  43 2.83   6 2.83  12 2.86  10 2.86
                            36 2.88  44 2.90   8 2.95  28 3.10
  33  0.083  0.125  0.000-  62 2.59  46 2.78  45 2.78  24 2.82  22 2.82  11 2.86   9 2.86  29 2.88
                            59 2.90  57 2.90
  34  0.583  0.125  0.000-  61 2.59  46 2.78  45 2.78  23 2.82  21 2.82  12 2.86  10 2.86  30 2.88
                            60 2.90  58 2.90
  35  0.083  0.625  0.000-  64 2.59  48 2.78  47 2.78  24 2.82  22 2.82  11 2.86   9 2.86  31 2.88
                            59 2.90  57 2.90
  36  0.583  0.625  0.000-  63 2.59  48 2.78  47 2.78  23 2.82  21 2.82  12 2.86  10 2.86  32 2.88
                            60 2.90  58 2.90
  37  0.365  0.119  0.409-  13 2.76  26 2.82  86 2.83   3 2.86  81 2.86  83 2.88  25 2.93  15 2.96
                            85 2.97  77 3.08   4 3.16
  38  0.858  0.140  0.414-  82 2.66  16 2.75  85 2.76  14 2.77   4 2.84   2 2.91  84 2.97  25 2.97
                            78 2.98  26 3.03  86 3.06
  39  0.333  0.610  0.402-  87 2.67  28 2.75  15 2.79  27 2.82   1 2.86  83 2.86  13 2.88  81 2.89
                            88 2.90  43 3.02   3 3.05
  40  0.859  0.568  0.421-  97 2.53  82 2.60  14 2.76  88 2.79  27 2.81  87 2.81   2 2.84  84 2.87
                            80 2.99   1 3.16
  41  0.343  0.118  0.237-  25 2.71  13 2.74  30 2.74  19 2.82   7 2.82  26 2.88  29 2.90  17 2.93
                            45 2.96   5 3.04  15 3.09
  42  0.840  0.128  0.230-  16 2.68  29 2.69  14 2.78  18 2.79  26 2.79  30 2.81  46 2.82  20 2.83
                             8 2.85   6 2.86  25 3.08
  43  0.334  0.623  0.239-  28 2.76   5 2.82  15 2.83  32 2.83  31 2.85   7 2.86  17 2.90  19 2.92
                            27 2.96  13 2.98  47 2.99  39 3.02
  44  0.847  0.610  0.234-  97 2.50  31 2.68  18 2.72  27 2.81  14 2.84   6 2.85  32 2.90  48 2.90
                            20 2.95  28 3.08
  45  0.333  0.125  0.078-  33 2.78  34 2.78  29 2.78  30 2.78   9 2.82  11 2.82  21 2.86  23 2.86
                            17 2.86  19 2.86  41 2.96  61 3.13
  46  0.833  0.125  0.078-  33 2.78  34 2.78  29 2.78  30 2.78  42 2.82  12 2.82  10 2.82  24 2.86
                            22 2.86  20 2.86  18 2.86  62 3.13
  47  0.333  0.625  0.078-  35 2.78  36 2.78  31 2.78  32 2.78   9 2.82  11 2.82  21 2.86  23 2.86
                            17 2.86  19 2.86  43 2.99  63 3.13
  48  0.833  0.625  0.078-  35 2.78  36 2.78  31 2.78  32 2.78  10 2.82  12 2.82  22 2.86  24 2.86
                            18 2.86  20 2.86  44 2.90  64 3.13
  49  0.375  0.375  0.824-  91 2.83  95 2.83  61 2.83  63 2.83  94 2.87  93 2.87  57 2.87  58 2.87

  50  0.875  0.375  0.824-  92 2.83  96 2.83  62 2.83  64 2.83  94 2.87  93 2.87  57 2.87  58 2.87
                            66 3.16
  51  0.375  0.875  0.824-  91 2.83  95 2.83  61 2.83  63 2.83  89 2.87  90 2.87  59 2.87  60 2.87
                            67 2.93
  52  0.875  0.875  0.824-  92 2.83  96 2.83  62 2.83  64 2.83  89 2.87  90 2.87  59 2.87  60 2.87
                            68 2.88
  53  0.125  0.125  0.824-  89 2.83  93 2.83  57 2.83  59 2.83  95 2.87  96 2.87  61 2.87  62 2.87

  54  0.625  0.125  0.824-  90 2.83  94 2.83  58 2.83  60 2.83  95 2.87  96 2.87  61 2.87  62 2.87
                            70 3.16
  55  0.125  0.625  0.824-  89 2.83  93 2.83  57 2.83  59 2.83  92 2.87  91 2.87  63 2.87  64 2.87
                            71 2.93
  56  0.625  0.625  0.824-  90 2.83  94 2.83  58 2.83  60 2.83  92 2.87  91 2.87  63 2.87  64 2.87
                            72 2.88
  57  0.125  0.375  0.910-  22 2.59  53 2.83  55 2.83  49 2.87  50 2.87  33 2.90  35 2.90   9 3.13

  58  0.625  0.375  0.910-  21 2.59  54 2.83  56 2.83  49 2.87  50 2.87  34 2.90  36 2.90  10 3.13

  59  0.125  0.875  0.910-  24 2.59  53 2.83  55 2.83  51 2.87  52 2.87  33 2.90  35 2.90  11 3.13

  60  0.625  0.875  0.910-  23 2.59  54 2.83  56 2.83  51 2.87  52 2.87  34 2.90  36 2.90  12 3.13

  61  0.375  0.125  0.910-  34 2.59  49 2.83  51 2.83  53 2.87  54 2.87  23 2.90  21 2.90  45 3.13

  62  0.875  0.125  0.910-  33 2.59  50 2.83  52 2.83  53 2.87  54 2.87  24 2.90  22 2.90  46 3.13

  63  0.375  0.625  0.910-  36 2.59  49 2.83  51 2.83  55 2.87  56 2.87  23 2.90  21 2.90  47 3.13

  64  0.875  0.625  0.910-  35 2.59  50 2.83  52 2.83  55 2.87  56 2.87  24 2.90  22 2.90  48 3.13

  65  0.400  0.364  0.649-  94 2.69  73 2.71  95 2.78  79 2.78  74 2.83  77 2.84  81 2.87  70 2.89
                            91 2.95  93 3.09
  66  0.894  0.363  0.653-  93 2.70  96 2.72  82 2.73  74 2.77  80 2.85  69 2.89  92 2.91  73 2.93
                            94 3.00  78 3.00  50 3.16
  67  0.383  0.870  0.666-  91 2.64  90 2.65  95 2.73  89 2.79  79 2.80  77 2.82  76 2.85  75 2.89
                            51 2.93  72 3.15
  68  0.884  0.870  0.668-  92 2.62  89 2.62  96 2.71  78 2.74  90 2.78  80 2.80  75 2.87  52 2.88
                            76 2.93  71 3.15
  69  0.100  0.136  0.649-  96 2.69  77 2.71  93 2.78  75 2.78  78 2.83  73 2.84  85 2.87  66 2.89
                            89 2.95  95 3.09
  70  0.606  0.137  0.653-  95 2.70  94 2.72  86 2.73  78 2.77  76 2.85  65 2.89  90 2.91  77 2.93
                            96 3.00  74 3.00  54 3.16
  71  0.117  0.630  0.666-  89 2.64  92 2.65  93 2.73  91 2.79  75 2.80  73 2.82  80 2.85  79 2.89
                            55 2.93  68 3.15
  72  0.616  0.630  0.668-  90 2.62  91 2.62  94 2.71  74 2.74  92 2.78  76 2.80  79 2.87  56 2.88
                            80 2.93  67 3.15
  73  0.158  0.394  0.574-  65 2.71  82 2.72  81 2.73  71 2.82  69 2.84  87 2.85  66 2.93  85 2.93
                            79 2.95  93 3.05   1 3.08
  74  0.653  0.411  0.572-  72 2.74  82 2.77  66 2.77  86 2.81  65 2.83  81 2.85  88 2.89  80 2.90
                             2 2.98  70 3.00  94 3.09
  75  0.131  0.875  0.579-  87 2.75  69 2.78  71 2.80  85 2.86  68 2.87  67 2.89  84 2.90  89 2.93
                            77 2.95  83 2.96
  76  0.631  0.871  0.579-  72 2.80  88 2.84  67 2.85  70 2.85  83 2.86  78 2.90  68 2.93  90 2.94
                            86 2.94   4 2.99
  77  0.342  0.106  0.574-  69 2.71  86 2.72  85 2.73  67 2.82  65 2.84  83 2.85  70 2.93  81 2.93
                            75 2.95  95 3.05  37 3.08
  78  0.847  0.089  0.572-  68 2.74  86 2.77  70 2.77  82 2.81  69 2.83  85 2.85  84 2.89  76 2.90
                            38 2.98  66 3.00  96 3.09
  79  0.369  0.625  0.579-  83 2.75  65 2.78  67 2.80  81 2.86  72 2.87  71 2.89  88 2.90  91 2.93
                            73 2.95  87 2.96
  80  0.869  0.629  0.579-  68 2.80  84 2.84  71 2.85  66 2.85  87 2.86  74 2.90  72 2.93  92 2.94
                            82 2.94  40 2.99
  81  0.398  0.371  0.495-  73 2.73   2 2.76  86 2.80  74 2.85  79 2.86  37 2.86  65 2.87  39 2.89
                            77 2.93   1 2.97
  82  0.908  0.352  0.507-  40 2.60  38 2.66  73 2.72  66 2.73  74 2.77  85 2.80  78 2.81   1 2.83
                            80 2.94   2 3.06
  83  0.388  0.857  0.489-   3 2.67  79 2.75  88 2.80   4 2.81  77 2.85  76 2.86  39 2.86  37 2.88
                            75 2.96  15 3.02
  84  0.902  0.852  0.477-   4 2.79  87 2.80  80 2.84  40 2.87  78 2.89   3 2.90  75 2.90  38 2.97
                            16 2.98  97 3.10
  85  0.102  0.129  0.495-  77 2.73  38 2.76  82 2.80  78 2.85  75 2.86   1 2.86  69 2.87   3 2.89
                            73 2.93  37 2.97
  86  0.592  0.148  0.507-   4 2.60   2 2.66  77 2.72  70 2.73  78 2.77  81 2.80  74 2.81  37 2.83
                            76 2.94  38 3.06
  87  0.112  0.643  0.489-  39 2.67  75 2.75  84 2.80  40 2.81  73 2.85  80 2.86   3 2.86   1 2.88
                            79 2.96  27 3.02
  88  0.598  0.648  0.477-  40 2.79  83 2.80  76 2.84   4 2.87  74 2.89  39 2.90  79 2.90   2 2.97
                            28 2.98  97 3.10
  89  0.125  0.875  0.737-  68 2.62  71 2.64  67 2.79  55 2.83  53 2.83  52 2.87  51 2.87  75 2.93
                            69 2.95
  90  0.625  0.875  0.737-  72 2.62  67 2.65  68 2.78  56 2.83  54 2.83  52 2.87  51 2.87  70 2.91
                            76 2.94
  91  0.375  0.625  0.737-  72 2.62  67 2.64  71 2.79  51 2.83  49 2.83  56 2.87  55 2.87  79 2.93
                            65 2.95
  92  0.875  0.625  0.737-  68 2.62  71 2.65  72 2.78  52 2.83  50 2.83  56 2.87  55 2.87  66 2.91
                            80 2.94
  93  0.125  0.375  0.737-  66 2.70  71 2.73  69 2.78  55 2.83  53 2.83  50 2.87  49 2.87  73 3.05
                            65 3.09
  94  0.625  0.375  0.737-  65 2.69  72 2.71  70 2.72  56 2.83  54 2.83  50 2.87  49 2.87  66 3.00
                            74 3.09
  95  0.375  0.125  0.737-  70 2.70  67 2.73  65 2.78  51 2.83  49 2.83  54 2.87  53 2.87  77 3.05
                            69 3.09
  96  0.875  0.125  0.737-  69 2.69  68 2.71  66 2.72  52 2.83  50 2.83  54 2.87  53 2.87  70 3.00
                            78 3.09
  97  0.750  0.750  0.338-  16 2.36  28 2.36  44 2.50   8 2.50  40 2.53   4 2.53  84 3.10  88 3.10
                            15 3.26  27 3.26
 
  LATTYP: Found a simple orthorhombic cell.
 ALAT       =     9.3508600000
 B/A-ratio  =     1.0173417204
 C/A-ratio  =     1.9834785250
  
  Lattice vectors:
  
 A1 = (   0.0000000000,  -9.3508600000,   0.0000000000)
 A2 = (  -9.5130200000,   0.0000000000,   0.0000000000)
 A3 = (   0.0000000000,   0.0000000000, -18.5472300000)


Analysis of symmetry for initial positions (statically):
=====================================================================
 Subroutine PRICEL returns:
 Original cell was already a primitive cell.
 

 Routine SETGRP: Setting up the symmetry group for a 
 simple orthorhombic supercell.


 Subroutine GETGRP returns: Found  2 space group operations
 (whereof  1 operations were pure point group operations)
 out of a pool of  8 trial point group operations.


The static configuration has the point symmetry C_1 .
 The point group associated with its full space group is C_2 .


Analysis of symmetry for dynamics (positions and initial velocities):
=====================================================================
 Subroutine PRICEL returns:
 Original cell was already a primitive cell.
 

 Routine SETGRP: Setting up the symmetry group for a 
 simple orthorhombic supercell.


 Subroutine GETGRP returns: Found  2 space group operations
 (whereof  1 operations were pure point group operations)
 out of a pool of  8 trial point group operations.


The dynamic configuration has the point symmetry C_1 .
 The point group associated with its full space group is C_2 .


Analysis of constrained symmetry for selective dynamics:
=====================================================================
 Subroutine PRICEL returns:
 Original cell was already a primitive cell.
 

 Routine SETGRP: Setting up the symmetry group for a 
 simple orthorhombic supercell.


 Subroutine GETGRP returns: Found  2 space group operations
 (whereof  1 operations were pure point group operations)
 out of a pool of  8 trial point group operations.


The constrained configuration has the point symmetry C_1 .
 The point group associated with its full space group is C_2 .
 
 
 KPOINTS: K-Mesh Generated with KP-Resolved Value 

Automatic generation of k-mesh.
Space group operators:
 irot       det(A)        alpha          n_x          n_y          n_z        tau_x        tau_y        tau_z
    1     1.000000     0.000001     1.000000     0.000000     0.000000     0.000000     0.000000     0.000000
    2     1.000000   180.000000     0.000000     0.000000     1.000000    -0.500000    -0.500000     0.000000
 
 Subroutine IBZKPT returns following result:
 ===========================================
 
 Found     20 irreducible k-points:
 
 Following reciprocal coordinates:
            Coordinates               Weight
  0.000000  0.000000  0.000000      1.000000
  0.250000  0.000000  0.000000      2.000000
  0.500000  0.000000  0.000000      1.000000
  0.000000  0.250000  0.000000      2.000000
  0.250000  0.250000  0.000000      2.000000
  0.500000  0.250000  0.000000      2.000000
 -0.250000  0.250000  0.000000      2.000000
  0.000000  0.500000  0.000000      1.000000
  0.250000  0.500000  0.000000      2.000000
  0.500000  0.500000  0.000000      1.000000
  0.000000  0.000000  0.500000      1.000000
  0.250000  0.000000  0.500000      2.000000
  0.500000  0.000000  0.500000      1.000000
  0.000000  0.250000  0.500000      2.000000
  0.250000  0.250000  0.500000      2.000000
  0.500000  0.250000  0.500000      2.000000
 -0.250000  0.250000  0.500000      2.000000
  0.000000  0.500000  0.500000      1.000000
  0.250000  0.500000  0.500000      2.000000
  0.500000  0.500000  0.500000      1.000000
 
 Following cartesian coordinates:
            Coordinates               Weight
  0.000000  0.000000  0.000000      1.000000
  0.026280  0.000000  0.000000      2.000000
  0.052560  0.000000  0.000000      1.000000
  0.000000  0.026736  0.000000      2.000000
  0.026280  0.026736  0.000000      2.000000
  0.052560  0.026736  0.000000      2.000000
 -0.026280  0.026736  0.000000      2.000000
  0.000000  0.053471  0.000000      1.000000
  0.026280  0.053471  0.000000      2.000000
  0.052560  0.053471  0.000000      1.000000
  0.000000  0.000000  0.026958      1.000000
  0.026280  0.000000  0.026958      2.000000
  0.052560  0.000000  0.026958      1.000000
  0.000000  0.026736  0.026958      2.000000
  0.026280  0.026736  0.026958      2.000000
  0.052560  0.026736  0.026958      2.000000
 -0.026280  0.026736  0.026958      2.000000
  0.000000  0.053471  0.026958      1.000000
  0.026280  0.053471  0.026958      2.000000
  0.052560  0.053471  0.026958      1.000000
 


--------------------------------------------------------------------------------------------------------




 Dimension of arrays:
   k-points           NKPTS =     20   k-points in BZ     NKDIM =     20   number of bands    NBANDS=    248
   number of dos      NEDOS =    301   number of ions     NIONS =     97
   non local maximal  LDIM  =      6   non local SUM 2l+1 LMDIM =     18
   total plane-waves  NPLWV = 460800
   max r-space proj   IRMAX =   4789   max aug-charges    IRDMAX=  19487
   dimension x,y,z NGX =    64 NGY =   60 NGZ =  120
   dimension x,y,z NGXF=   128 NGYF=  120 NGZF=  240
   support grid    NGXF=   128 NGYF=  120 NGZF=  240
   ions per type =              96   1
 NGX,Y,Z   is equivalent  to a cutoff of  11.18, 10.67, 10.76 a.u.
 NGXF,Y,Z  is equivalent  to a cutoff of  22.37, 21.33, 21.51 a.u.


 I would recommend the setting:
   dimension x,y,z NGX =    45 NGY =   45 NGZ =   88
 SYSTEM =  unknown system                          
 POSCAR =  Ti96 Mo1                                

 Startparameter for this run:
   NWRITE =      2    write-flag & timer
   PREC   = normal    normal or accurate (medium, high low for compatibility)
   ISTART =      0    job   : 0-new  1-cont  2-samecut
   ICHARG =      2    charge: 1-file 2-atom 10-const
   ISPIN  =      1    spin polarized calculation?
   LNONCOLLINEAR =      F non collinear calculations
   LSORBIT =      F    spin-orbit coupling
   INIWAV =      1    electr: 0-lowe 1-rand  2-diag
   LASPH  =      F    aspherical Exc in radial PAW
   METAGGA=      F    non-selfconsistent MetaGGA calc.

 Electronic Relaxation 1
   ENCUT  =  380.0 eV  27.93 Ry    5.28 a.u.  15.12 14.86 29.48*2*pi/ulx,y,z
   ENINI  =  380.0     initial cutoff
   ENAUG  =  446.0 eV  augmentation charge cutoff
   NELM   =    300;   NELMIN=  2; NELMDL=  0     # of ELM steps 
   EDIFF  = 0.5E-07   stopping-criterion for ELM
   LREAL  =      T    real-space projection
   NLSPLINE    = F    spline interpolate recip. space projectors
   LCOMPAT=      F    compatible to vasp.4.4
   GGA_COMPAT  = T    GGA compatible to vasp.4.4-vasp.4.6
   LMAXPAW     = -100 max onsite density
   LMAXMIX     =    2 max onsite mixed and CHGCAR
   VOSKOWN=      0    Vosko Wilk Nusair interpolation
   ROPT   =   -0.00050  -0.00050
 Ionic relaxation
   EDIFFG = -.5E-02   stopping-criterion for IOM
   NSW    =    400    number of steps for IOM
   NBLOCK =      1;   KBLOCK =    400    inner block; outer block 
   IBRION =      2    ionic relax: 0-MD 1-quasi-New 2-CG
   NFREE  =      1    steps in history (QN), initial steepest desc. (CG)
   ISIF   =      2    stress and relaxation
   IWAVPR =     11    prediction:  0-non 1-charg 2-wave 3-comb
   ISYM   =      2    0-nonsym 1-usesym 2-fastsym
   LCORR  =      T    Harris-Foulkes like correction to forces

   POTIM  = 0.5000    time-step for ionic-motion
   TEIN   =    0.0    initial temperature
   TEBEG  =    0.0;   TEEND  =   0.0 temperature during run
   SMASS  =  -3.00    Nose mass-parameter (am)
   estimated Nose-frequenzy (Omega)   =  0.10E-29 period in steps =****** mass=  -0.207E-26a.u.
   SCALEE = 1.0000    scale energy and forces
   NPACO  =    256;   APACO  = 16.0  distance and # of slots for P.C.
   PSTRESS=    0.0 pullay stress

  Mass of Ions in am
   POMASS =  47.88 95.94
  Ionic Valenz
   ZVAL   =   4.00 14.00
  Atomic Wigner-Seitz radii
   RWIGS  =  -1.00 -1.00
  virtual crystal weights 
   VCA    =   1.00  1.00
   NELECT =     398.0000    total number of electrons
   NUPDOWN=      -1.0000    fix difference up-down

 DOS related values:
   EMIN   =  10.00;   EMAX   =-10.00  energy-range for DOS
   EFERMI =   0.00
   ISMEAR =     1;   SIGMA  =   0.05  broadening in eV -4-tet -1-fermi 0-gaus

 Electronic relaxation 2 (details)
   IALGO  =     38    algorithm
   LDIAG  =      T    sub-space diagonalisation (order eigenvalues)
   LSUBROT=      F    optimize rotation matrix (better conditioning)
   TURBO    =      0    0=normal 1=particle mesh
   IRESTART =      0    0=no restart 2=restart with 2 vectors
   NREBOOT  =      0    no. of reboots
   NMIN     =      0    reboot dimension
   EREF     =   0.00    reference energy to select bands
   IMIX   =      4    mixing-type and parameters
     AMIX     =   0.40;   BMIX     =  1.00
     AMIX_MAG =   1.60;   BMIX_MAG =  1.00
     AMIN     =   0.10
     WC   =   100.;   INIMIX=   1;  MIXPRE=   1;  MAXMIX= -45

 Intra band minimization:
   WEIMIN = 0.0010     energy-eigenvalue tresh-hold
   EBREAK =  0.50E-10  absolut break condition
   DEPER  =   0.30     relativ break condition  

   TIME   =   0.40     timestep for ELM

  volume/ion in A,a.u.               =      17.01       114.78
  Fermi-wavevector in a.u.,A,eV,Ry     =   1.019106  1.925832 14.130709  1.038578
  Thomas-Fermi vector in A             =   2.152602
 
 Write flags
   LWAVE  =      F    write WAVECAR
   LCHARG =      T    write CHGCAR
   LVTOT  =      F    write LOCPOT, total local potential
   LVHAR  =      F    write LOCPOT, Hartree potential only
   LELF   =      F    write electronic localiz. function (ELF)
   LORBIT =      0    0 simple, 1 ext, 2 COOP (PROOUT)


 Dipole corrections
   LMONO  =      F    monopole corrections only (constant potential shift)
   LDIPOL =      F    correct potential (dipole corrections)
   IDIPOL =      0    1-x, 2-y, 3-z, 4-all directions 
   EPSILON=  1.0000000 bulk dielectric constant

 Exchange correlation treatment:
   GGA     =    PS    GGA type
   LEXCH   =    14    internal setting for exchange type
   VOSKOWN=      0    Vosko Wilk Nusair interpolation
   LHFCALC =     F    Hartree Fock is set to
   LHFONE  =     F    Hartree Fock one center treatment
   AEXX    =    0.0000 exact exchange contribution

 Linear response parameters
   LEPSILON=     F    determine dielectric tensor
   LRPA    =     F    only Hartree local field effects (RPA)
   LNABLA  =     F    use nabla operator in PAW spheres
   LVEL    =     F    velocity operator in full k-point grid
   LINTERFAST=   F  fast interpolation
   KINTER  =     0    interpolate to denser k-point grid
   CSHIFT  =0.1000    complex shift for real part using Kramers Kronig
   OMEGAMAX=  -1.0    maximum frequency
   DEG_THRESHOLD= 0.2000000E-02 threshold for treating states as degnerate
   RTIME   =    0.100 relaxation time in fs

 Orbital magnetization related:
   ORBITALMAG=     F  switch on orbital magnetization
   LCHIMAG   =     F  perturbation theory with respect to B field
   DQ        =  0.001000  dq finite difference perturbation B field



--------------------------------------------------------------------------------------------------------


 conjugate gradient relaxation of ions
   using selective dynamics as specified on POSCAR
 charge density and potential will be updated during run
 non-spin polarized calculation
 Variant of blocked Davidson
 Davidson routine will perform the subspace rotation
 perform sub-space diagonalisation
    after iterative eigenvector-optimisation
 modified Broyden-mixing scheme, WC =      100.0
 initial mixing is a Kerker type mixing with AMIX =  0.4000 and BMIX =      1.0000
 Hartree-type preconditioning will be used
 using additional bands           49
 real space projection scheme for non local part
 use partial core corrections
 calculate Harris-corrections to forces 
   (improved forces if not selfconsistent)
 use gradient corrections 
 use of overlap-Matrix (Vanderbilt PP)
 Methfessel and Paxton  Order N= 1 SIGMA  =   0.05


--------------------------------------------------------------------------------------------------------


  energy-cutoff  :      380.00
  volume of cell :     1649.87
      direct lattice vectors                 reciprocal lattice vectors
     9.513020000  0.000000000  0.000000000     0.105119089  0.000000000  0.000000000
     0.000000000  9.350860000  0.000000000     0.000000000  0.106942035  0.000000000
     0.000000000  0.000000000 18.547230000     0.000000000  0.000000000  0.053916407

  length of vectors
     9.513020000  9.350860000 18.547230000     0.105119089  0.106942035  0.053916407


 
 k-points in units of 2pi/SCALE and weight: K-Mesh Generated with KP-Resolved Value 
   0.00000000  0.00000000  0.00000000       0.031
   0.02627977  0.00000000  0.00000000       0.062
   0.05255954  0.00000000  0.00000000       0.031
   0.00000000  0.02673551  0.00000000       0.062
   0.02627977  0.02673551  0.00000000       0.062
   0.05255954  0.02673551  0.00000000       0.062
  -0.02627977  0.02673551  0.00000000       0.062
   0.00000000  0.05347102  0.00000000       0.031
   0.02627977  0.05347102  0.00000000       0.062
   0.05255954  0.05347102  0.00000000       0.031
   0.00000000  0.00000000  0.02695820       0.031
   0.02627977  0.00000000  0.02695820       0.062
   0.05255954  0.00000000  0.02695820       0.031
   0.00000000  0.02673551  0.02695820       0.062
   0.02627977  0.02673551  0.02695820       0.062
   0.05255954  0.02673551  0.02695820       0.062
  -0.02627977  0.02673551  0.02695820       0.062
   0.00000000  0.05347102  0.02695820       0.031
   0.02627977  0.05347102  0.02695820       0.062
   0.05255954  0.05347102  0.02695820       0.031
 
 k-points in reciprocal lattice and weights: K-Mesh Generated with KP-Resolved Value 
   0.00000000  0.00000000  0.00000000       0.031
   0.25000000  0.00000000  0.00000000       0.062
   0.50000000  0.00000000  0.00000000       0.031
   0.00000000  0.25000000  0.00000000       0.062
   0.25000000  0.25000000  0.00000000       0.062
   0.50000000  0.25000000  0.00000000       0.062
  -0.25000000  0.25000000  0.00000000       0.062
   0.00000000  0.50000000  0.00000000       0.031
   0.25000000  0.50000000  0.00000000       0.062
   0.50000000  0.50000000  0.00000000       0.031
   0.00000000  0.00000000  0.50000000       0.031
   0.25000000  0.00000000  0.50000000       0.062
   0.50000000  0.00000000  0.50000000       0.031
   0.00000000  0.25000000  0.50000000       0.062
   0.25000000  0.25000000  0.50000000       0.062
   0.50000000  0.25000000  0.50000000       0.062
  -0.25000000  0.25000000  0.50000000       0.062
   0.00000000  0.50000000  0.50000000       0.031
   0.25000000  0.50000000  0.50000000       0.062
   0.50000000  0.50000000  0.50000000       0.031
 
 position of ions in fractional coordinates (direct lattice) 
   0.13461918  0.38104611  0.40887130
   0.64173158  0.35981113  0.41423459
   0.16733380  0.88955045  0.40171009
   0.64099133  0.93222105  0.42128969
   0.15700747  0.38222842  0.23692980
   0.65975307  0.37232623  0.22963519
   0.16560495  0.87659984  0.23888221
   0.65309127  0.88973102  0.23385309
   0.16666600  0.37500000  0.07768900
   0.66666600  0.37500000  0.07768900
   0.16666600  0.87500000  0.07768900
   0.66666600  0.87500000  0.07768900
   0.38910271  0.35450828  0.32047448
   0.89833040  0.36146937  0.31716782
   0.42324896  0.85262557  0.32740756
   0.92723427  0.92380292  0.32055075
   0.41666700  0.37500000  0.15537900
   0.91666700  0.37500000  0.15537900
   0.41666700  0.87500000  0.15537900
   0.91666700  0.87500000  0.15537900
   0.41666700  0.37500000  0.00000000
   0.91666700  0.37500000  0.00000000
   0.41666700  0.87500000  0.00000000
   0.91666700  0.87500000  0.00000000
   0.11089729  0.14549172  0.32047348
   0.60166960  0.13853063  0.31716682
   0.07675104  0.64737443  0.32740656
   0.57276573  0.57619708  0.32054975
   0.08333300  0.12500000  0.15537900
   0.58333300  0.12500000  0.15537900
   0.08333300  0.62500000  0.15537900
   0.58333300  0.62500000  0.15537900
   0.08333300  0.12500000  0.00000000
   0.58333300  0.12500000  0.00000000
   0.08333300  0.62500000  0.00000000
   0.58333300  0.62500000  0.00000000
   0.36537982  0.11895389  0.40887130
   0.85826742  0.14018887  0.41423459
   0.33266520  0.61044955  0.40171009
   0.85900767  0.56777895  0.42128969
   0.34299153  0.11777158  0.23692980
   0.84024593  0.12767377  0.22963519
   0.33439405  0.62340016  0.23888221
   0.84690773  0.61026898  0.23385309
   0.33333300  0.12500000  0.07768900
   0.83333300  0.12500000  0.07768900
   0.33333300  0.62500000  0.07768900
   0.83333300  0.62500000  0.07768900
   0.37500000  0.37500000  0.82373800
   0.87500000  0.37500000  0.82373800
   0.37500000  0.87500000  0.82373800
   0.87500000  0.87500000  0.82373800
   0.12500000  0.12500000  0.82373800
   0.62500000  0.12500000  0.82373800
   0.12500000  0.62500000  0.82373800
   0.62500000  0.62500000  0.82373800
   0.12500000  0.37500000  0.91008400
   0.62500000  0.37500000  0.91008400
   0.12500000  0.87500000  0.91008400
   0.62500000  0.87500000  0.91008400
   0.37500000  0.12500000  0.91008400
   0.87500000  0.12500000  0.91008400
   0.37500000  0.62500000  0.91008400
   0.87500000  0.62500000  0.91008400
   0.40036656  0.36355114  0.64929112
   0.89373598  0.36319477  0.65347805
   0.38317558  0.86964705  0.66603391
   0.88417218  0.86963527  0.66847503
   0.09963344  0.13644886  0.64929112
   0.60626402  0.13680523  0.65347805
   0.11682442  0.63035295  0.66603391
   0.61582782  0.63036473  0.66847503
   0.15784888  0.39422012  0.57423565
   0.65297460  0.41069400  0.57249990
   0.13117895  0.87546471  0.57920930
   0.63057687  0.87087737  0.57917175
   0.34215112  0.10577988  0.57423565
   0.84702540  0.08930600  0.57249990
   0.36882105  0.62453529  0.57920930
   0.86942313  0.62912263  0.57917175
   0.39810533  0.37099661  0.49466706
   0.90773685  0.35211138  0.50653454
   0.38758191  0.85677726  0.48907261
   0.90178649  0.85151732  0.47657168
   0.10189467  0.12900339  0.49466706
   0.59226315  0.14788862  0.50653454
   0.11241809  0.64322274  0.48907261
   0.59821351  0.64848268  0.47657168
   0.12500000  0.87500000  0.73739500
   0.62500000  0.87500000  0.73739500
   0.37500000  0.62500000  0.73739500
   0.87500000  0.62500000  0.73739500
   0.12500000  0.37500000  0.73739500
   0.62500000  0.37500000  0.73739500
   0.37500000  0.12500000  0.73739500
   0.87500000  0.12500000  0.73739500
   0.75000000  0.75000000  0.33780662
 
 position of ions in cartesian coordinates  (Angst):
   1.28063493  3.56310882  7.58343000
   6.10480536  3.36454349  7.68290423
   1.59184982  8.31806172  7.45060939
   6.09776333  8.71706852  7.81375678
   1.49361518  3.57416446  4.39439144
   6.27624413  3.48157048  4.25909670
   1.57540324  8.19696237  4.43060330
   6.21287032  8.31975025  4.33732698
   1.58549699  3.50657250  1.44091575
   6.34200699  3.50657250  1.44091575
   1.58549699  8.18200250  1.44091575
   6.34200699  8.18200250  1.44091575
   3.70154182  3.31495733  5.94391398
   8.54583506  3.38004947  5.88258450
   4.02637586  7.97278237  6.07250327
   8.82079815  8.63835181  5.94532851
   3.96376150  3.50657250  2.88185005
   8.72027150  3.50657250  2.88185005
   3.96376150  8.18200250  2.88185005
   8.72027150  8.18200250  2.88185005
   3.96376150  3.50657250  0.00000000
   8.72027150  3.50657250  0.00000000
   3.96376150  8.18200250  0.00000000
   8.72027150  8.18200250  0.00000000
   1.05496818  1.36047267  5.94389543
   5.72369494  1.29538053  5.88256595
   0.73013414  6.05350763  6.07248472
   5.44873185  5.38793819  5.94530996
   0.79274850  1.16885750  2.88185005
   5.54925850  1.16885750  2.88185005
   0.79274850  5.84428750  2.88185005
   5.54925850  5.84428750  2.88185005
   0.79274850  1.16885750  0.00000000
   5.54925850  1.16885750  0.00000000
   0.79274850  5.84428750  0.00000000
   5.54925850  5.84428750  0.00000000
   3.47586555  1.11232118  7.58343000
   8.16471513  1.31088651  7.68290423
   3.16465066  5.70822828  7.45060939
   8.17175715  5.30922148  7.81375678
   3.26288531  1.10126554  4.39439144
   7.99327636  1.19385952  4.25909670
   3.18109725  5.82932763  4.43060330
   8.05665017  5.70653975  4.33732698
   3.17100350  1.16885750  1.44091575
   7.92751350  1.16885750  1.44091575
   3.17100350  5.84428750  1.44091575
   7.92751350  5.84428750  1.44091575
   3.56738250  3.50657250 15.27805815
   8.32389250  3.50657250 15.27805815
   3.56738250  8.18200250 15.27805815
   8.32389250  8.18200250 15.27805815
   1.18912750  1.16885750 15.27805815
   5.94563750  1.16885750 15.27805815
   1.18912750  5.84428750 15.27805815
   5.94563750  5.84428750 15.27805815
   1.18912750  3.50657250 16.87953727
   5.94563750  3.50657250 16.87953727
   1.18912750  8.18200250 16.87953727
   5.94563750  8.18200250 16.87953727
   3.56738250  1.16885750 16.87953727
   8.32389250  1.16885750 16.87953727
   3.56738250  5.84428750 16.87953727
   8.32389250  5.84428750 16.87953727
   3.80869512  3.39951577 12.04255167
   8.50212827  3.39618345 12.12020774
   3.64515698  8.13194780 12.35308419
   8.41114766  8.13183768 12.39836008
   0.94781488  1.27591423 12.04255167
   5.76740173  1.27924655 12.12020774
   1.11135302  5.89434220 12.35308419
   5.85838234  5.89445232 12.39836008
   1.50161957  3.68629714 10.65048073
   6.21176041  3.84034207 10.61828739
   1.24790799  8.18634793 10.74272811
   5.99869039  8.14345241 10.74203161
   3.25489043  0.98913286 10.65048073
   8.05776959  0.83508793 10.61828739
   3.50860201  5.83994207 10.74272811
   8.27083961  5.88283759 10.74203161
   3.78718397  3.46913734  9.17470375
   8.63531882  3.29254417  9.39481271
   3.68707445  8.01160421  9.07094222
   8.57871294  7.96241929  8.83908457
   0.96932603  1.20629266  9.17470375
   5.63421118  1.38288583  9.39481271
   1.06943555  6.01468579  9.07094222
   5.69081706  6.06387071  8.83908457
   1.18912750  8.18200250 13.67663467
   5.94563750  8.18200250 13.67663467
   3.56738250  5.84428750 13.67663467
   8.32389250  5.84428750 13.67663467
   1.18912750  3.50657250 13.67663467
   5.94563750  3.50657250 13.67663467
   3.56738250  1.16885750 13.67663467
   8.32389250  1.16885750 13.67663467
   7.13476500  7.01314500  6.26537705
 


--------------------------------------------------------------------------------------------------------


 k-point  1 :   0.0000 0.0000 0.0000  plane waves:   27725
 k-point  2 :   0.2500 0.0000 0.0000  plane waves:   27730
 k-point  3 :   0.5000 0.0000 0.0000  plane waves:   27758
 k-point  4 :   0.0000 0.2500 0.0000  plane waves:   27716
 k-point  5 :   0.2500 0.2500 0.0000  plane waves:   27758
 k-point  6 :   0.5000 0.2500 0.0000  plane waves:   27798
 k-point  7 :  -0.2500 0.2500 0.0000  plane waves:   27758
 k-point  8 :   0.0000 0.5000 0.0000  plane waves:   27778
 k-point  9 :   0.2500 0.5000 0.0000  plane waves:   27778
 k-point 10 :   0.5000 0.5000 0.0000  plane waves:   27788
 k-point 11 :   0.0000 0.0000 0.5000  plane waves:   27714
 k-point 12 :   0.2500 0.0000 0.5000  plane waves:   27754
 k-point 13 :   0.5000 0.0000 0.5000  plane waves:   27796
 k-point 14 :   0.0000 0.2500 0.5000  plane waves:   27762
 k-point 15 :   0.2500 0.2500 0.5000  plane waves:   27736
 k-point 16 :   0.5000 0.2500 0.5000  plane waves:   27732
 k-point 17 :  -0.2500 0.2500 0.5000  plane waves:   27736
 k-point 18 :   0.0000 0.5000 0.5000  plane waves:   27760
 k-point 19 :   0.2500 0.5000 0.5000  plane waves:   27744
 k-point 20 :   0.5000 0.5000 0.5000  plane waves:   27752

 maximum and minimum number of plane-waves per node :      2355     2278

 maximum number of plane-waves:     27798
 maximum index in each direction: 
   IXMAX=   15   IYMAX=   14   IZMAX=   29
   IXMIN=  -15   IYMIN=  -15   IZMIN=  -29

 NGX is ok and might be reduce to  62
 NGY is ok and might be reduce to  60
 NGZ is ok and might be reduce to 118

 real space projection operators:
  total allocation   :      52343.09 KBytes
  max/ min on nodes  :       4844.32       4066.83


 parallel 3D FFT for wavefunctions:
    minimum data exchange during FFTs selected (reduces bandwidth)
 parallel 3D FFT for charge:
    minimum data exchange during FFTs selected (reduces bandwidth)


 total amount of memory used by VASP on root node   160409. kBytes
========================================================================

   base      :      30000. kBytes
   nonlr-proj:      13829. kBytes
   fftplans  :       6964. kBytes
   grid      :      11468. kBytes
   one-center:        139. kBytes
   wavefun   :      98009. kBytes
 
     INWAV:  cpu time    0.0001: real time    0.0004
 Broyden mixing: mesh for mixing (old mesh)
   NGX = 31   NGY = 29   NGZ = 59
  (NGX  =128   NGY  =120   NGZ  =240)
  gives a total of  53041 points

 initial charge density was supplied:
 charge density of overlapping atoms calculated
 number of electron     398.0000000 magnetization 
 keeping initial charge density in first step


--------------------------------------------------------------------------------------------------------


 Maximum index for non-local projection operator          584
 Maximum index for augmentation-charges         1404 (set IRDMAX)


--------------------------------------------------------------------------------------------------------


 First call to EWALD:  gamma=   0.150
 Maximum number of real-space cells 3x 3x 2
 Maximum number of reciprocal cells 2x 2x 4

 FEWALD executed in parallel
    FEWALD:  cpu time    0.1025: real time    0.1225


----------------------------------------- Iteration    1(   1)  ---------------------------------------


    POTLOK:  cpu time    0.1253: real time    0.4227
    SETDIJ:  cpu time    1.2850: real time    1.3039
     EDDAV:  cpu time   14.5610: real time   17.4778
       DOS:  cpu time    0.0027: real time    0.0027
    --------------------------------------------
      LOOP:  cpu time   15.9767: real time   19.2486

 eigenvalue-minimisations  : 10240
 total energy-change (2. order) : 0.1623278E+04  (-0.1051101E+05)
 number of electron     398.0000000 magnetization 
 augmentation part      398.0000000 magnetization 

 Free energy of the ion-electron system (eV)
  ---------------------------------------------------
  alpha Z        PSCENC =      2072.13779208
  Ewald energy   TEWEN  =    -13128.56753353
  -Hartree energ DENC   =     -1770.67409734
  -exchange      EXHF   =         0.00000000
  -V(xc)+E(xc)   XCENC  =     -3396.24398537
  PAW double counting   =     13452.44848680    -9619.12251548
  entropy T*S    EENTRO =        -0.00074507
  eigenvalues    EBANDS =      3050.99491996
  atomic energy  EATOM  =     10962.30518601
  Solvation  Ediel_sol  =         0.00000000
  ---------------------------------------------------
  free energy    TOTEN  =      1623.27750805 eV

  energy without entropy =     1623.27825312  energy(sigma->0) =     1623.27775641


--------------------------------------------------------------------------------------------------------




----------------------------------------- Iteration    1(   2)  ---------------------------------------


     EDDAV:  cpu time   12.9064: real time   13.0479
       DOS:  cpu time    0.0028: real time    0.0028
    --------------------------------------------
      LOOP:  cpu time   12.9101: real time   13.0556

 eigenvalue-minimisations  :  9928
 total energy-change (2. order) :-0.2135020E+04  (-0.2076471E+04)
 number of electron     398.0000000 magnetization 
 augmentation part      398.0000000 magnetization 

 Free energy of the ion-electron system (eV)
  ---------------------------------------------------
  alpha Z        PSCENC =      2072.13779208
  Ewald energy   TEWEN  =    -13128.56753353
  -Hartree energ DENC   =     -1770.67409734
  -exchange      EXHF   =         0.00000000
  -V(xc)+E(xc)   XCENC  =     -3396.24398537
  PAW double counting   =     13452.44848680    -9619.12251548
  entropy T*S    EENTRO =         0.00110938
  eigenvalues    EBANDS =       915.97303904
  atomic energy  EATOM  =     10962.30518601
  Solvation  Ediel_sol  =         0.00000000
  ---------------------------------------------------
  free energy    TOTEN  =      -511.74251842 eV

  energy without entropy =     -511.74362780  energy(sigma->0) =     -511.74288821


--------------------------------------------------------------------------------------------------------




----------------------------------------- Iteration    1(   3)  ---------------------------------------


     EDDAV:  cpu time   18.5065: real time   18.7625
       DOS:  cpu time    0.0029: real time    0.0029
    --------------------------------------------
      LOOP:  cpu time   18.5103: real time   18.7703

 eigenvalue-minimisations  : 15624
 total energy-change (2. order) :-0.3222832E+03  (-0.3005110E+03)
 number of electron     398.0000000 magnetization 
 augmentation part      398.0000000 magnetization 

 Free energy of the ion-electron system (eV)
  ---------------------------------------------------
  alpha Z        PSCENC =      2072.13779208
  Ewald energy   TEWEN  =    -13128.56753353
  -Hartree energ DENC   =     -1770.67409734
  -exchange      EXHF   =         0.00000000
  -V(xc)+E(xc)   XCENC  =     -3396.24398537
  PAW double counting   =     13452.44848680    -9619.12251548
  entropy T*S    EENTRO =        -0.00414154
  eigenvalues    EBANDS =       593.69508395
  atomic energy  EATOM  =     10962.30518601
  Solvation  Ediel_sol  =         0.00000000
  ---------------------------------------------------
  free energy    TOTEN  =      -834.02572443 eV

  energy without entropy =     -834.02158288  energy(sigma->0) =     -834.02434391


--------------------------------------------------------------------------------------------------------




----------------------------------------- Iteration    1(   4)  ---------------------------------------


     EDDAV:  cpu time   19.2282: real time   19.5945
       DOS:  cpu time    0.0029: real time    0.0029
    --------------------------------------------
      LOOP:  cpu time   19.2320: real time   19.6022

 eigenvalue-minimisations  : 16064
 total energy-change (2. order) :-0.3009120E+02  (-0.2866642E+02)
 number of electron     398.0000000 magnetization 
 augmentation part      398.0000000 magnetization 

 Free energy of the ion-electron system (eV)
  ---------------------------------------------------
  alpha Z        PSCENC =      2072.13779208
  Ewald energy   TEWEN  =    -13128.56753353
  -Hartree energ DENC   =     -1770.67409734
  -exchange      EXHF   =         0.00000000
  -V(xc)+E(xc)   XCENC  =     -3396.24398537
  PAW double counting   =     13452.44848680    -9619.12251548
  entropy T*S    EENTRO =        -0.00306237
  eigenvalues    EBANDS =       563.60280628
  atomic energy  EATOM  =     10962.30518601
  Solvation  Ediel_sol  =         0.00000000
  ---------------------------------------------------
  free energy    TOTEN  =      -864.11692293 eV

  energy without entropy =     -864.11386055  energy(sigma->0) =     -864.11590214


--------------------------------------------------------------------------------------------------------




----------------------------------------- Iteration    1(   5)  ---------------------------------------


     EDDAV:  cpu time   17.8251: real time   18.0772
       DOS:  cpu time    0.0027: real time    0.0028
    CHARGE:  cpu time    0.6009: real time    0.6393
    MIXING:  cpu time    0.0046: real time    0.0046
    --------------------------------------------
      LOOP:  cpu time   18.4343: real time   18.7291

 eigenvalue-minimisations  : 14984
 total energy-change (2. order) :-0.1353918E+01  (-0.1309514E+01)
 number of electron     398.0000027 magnetization 
 augmentation part       78.2678251 magnetization 

 Broyden mixing:
  rms(total) = 0.11836E+02    rms(broyden)= 0.11836E+02
  rms(prec ) = 0.12198E+02
  weight for this iteration     100.00

 Free energy of the ion-electron system (eV)
  ---------------------------------------------------
  alpha Z        PSCENC =      2072.13779208
  Ewald energy   TEWEN  =    -13128.56753353
  -Hartree energ DENC   =     -1770.67409734
  -exchange      EXHF   =         0.00000000
  -V(xc)+E(xc)   XCENC  =     -3396.24398537
  PAW double counting   =     13452.44848680    -9619.12251548
  entropy T*S    EENTRO =        -0.00200659
  eigenvalues    EBANDS =       562.24783281
  atomic energy  EATOM  =     10962.30518601
  Solvation  Ediel_sol  =         0.00000000
  ---------------------------------------------------
  free energy    TOTEN  =      -865.47084062 eV

  energy without entropy =     -865.46883402  energy(sigma->0) =     -865.47017175


--------------------------------------------------------------------------------------------------------




----------------------------------------- Iteration    1(   6)  ---------------------------------------


    POTLOK:  cpu time    0.1172: real time    0.1178
    SETDIJ:  cpu time    0.3752: real time    0.3783
     EDDAV:  cpu time   17.9445: real time   18.1422
       DOS:  cpu time    0.0028: real time    0.0028
    CHARGE:  cpu time    0.5555: real time    0.5562
    MIXING:  cpu time    0.0052: real time    0.5603
    --------------------------------------------
      LOOP:  cpu time   19.0020: real time   19.7628

 eigenvalue-minimisations  : 14984
 total energy-change (2. order) : 0.8742366E+02  (-0.3732651E+02)
 number of electron     398.0000040 magnetization 
 augmentation part      100.9977169 magnetization 

 Broyden mixing:
  rms(total) = 0.42731E+01    rms(broyden)= 0.42731E+01
  rms(prec ) = 0.61784E+01
  weight for this iteration     100.00

 eigenvalues of (default mixing * dielectric matrix)
  average eigenvalue GAMMA=   1.1972
  1.1972

 Free energy of the ion-electron system (eV)
  ---------------------------------------------------
  alpha Z        PSCENC =      2072.13779208
  Ewald energy   TEWEN  =    -13128.56753353
  -Hartree energ DENC   =     -1518.22579881
  -exchange      EXHF   =         0.00000000
  -V(xc)+E(xc)   XCENC  =     -3379.26875191
  PAW double counting   =     20419.75754338   -16572.89301240
  entropy T*S    EENTRO =         0.00086746
  eigenvalues    EBANDS =       366.70652856
  atomic energy  EATOM  =     10962.30518601
  Solvation  Ediel_sol  =         0.00000000
  ---------------------------------------------------
  free energy    TOTEN  =      -778.04717917 eV

  energy without entropy =     -778.04804663  energy(sigma->0) =     -778.04746832


--------------------------------------------------------------------------------------------------------




----------------------------------------- Iteration    1(   7)  ---------------------------------------


    POTLOK:  cpu time    0.1144: real time    0.1159
    SETDIJ:  cpu time    0.0340: real time    0.0343
     EDDAV:  cpu time   21.0773: real time   21.5278
       DOS:  cpu time    0.0025: real time    0.0025
    CHARGE:  cpu time    0.5424: real time    0.5799
    MIXING:  cpu time    0.0070: real time    0.1268
    --------------------------------------------
      LOOP:  cpu time   21.7790: real time   22.3929

 eigenvalue-minimisations  : 18360
 total energy-change (2. order) :-0.3700625E+03  (-0.3109243E+03)
 number of electron     398.0000023 magnetization 
 augmentation part      127.6566620 magnetization 

 Broyden mixing:
  rms(total) = 0.86515E+01    rms(broyden)= 0.86514E+01
  rms(prec ) = 0.23311E+02
  weight for this iteration     100.00

 eigenvalues of (default mixing * dielectric matrix)
  average eigenvalue GAMMA=   0.7059
  1.1818  0.2299

 Free energy of the ion-electron system (eV)
  ---------------------------------------------------
  alpha Z        PSCENC =      2072.13779208
  Ewald energy   TEWEN  =    -13128.56753353
  -Hartree energ DENC   =     -1333.46619731
  -exchange      EXHF   =         0.00000000
  -V(xc)+E(xc)   XCENC  =     -3374.77528331
  PAW double counting   =     23590.51485972   -19758.25076790
  entropy T*S    EENTRO =        -0.00005759
  eigenvalues    EBANDS =      -178.00767002
  atomic energy  EATOM  =     10962.30518601
  Solvation  Ediel_sol  =         0.00000000
  ---------------------------------------------------
  free energy    TOTEN  =     -1148.10967186 eV

  energy without entropy =    -1148.10961426  energy(sigma->0) =    -1148.10965266


--------------------------------------------------------------------------------------------------------




----------------------------------------- Iteration    1(   8)  ---------------------------------------


    POTLOK:  cpu time    0.1233: real time    0.1263
    SETDIJ:  cpu time    0.0211: real time    0.0215
     EDDAV:  cpu time   20.4369: real time   20.8788
       DOS:  cpu time    0.0025: real time    0.0025
    CHARGE:  cpu time    0.5560: real time    0.5625
    MIXING:  cpu time    0.0041: real time    0.0551
    --------------------------------------------
      LOOP:  cpu time   21.1453: real time   21.6518

 eigenvalue-minimisations  : 17640
 total energy-change (2. order) : 0.2867720E+03  (-0.1687964E+03)
 number of electron     398.0000070 magnetization 
 augmentation part      118.1188571 magnetization 

 Broyden mixing:
  rms(total) = 0.67697E+01    rms(broyden)= 0.67696E+01
  rms(prec ) = 0.12193E+02
  weight for this iteration     100.00

 eigenvalues of (default mixing * dielectric matrix)
  average eigenvalue GAMMA=   0.5432
  1.2064  0.2891  0.1343

 Free energy of the ion-electron system (eV)
  ---------------------------------------------------
  alpha Z        PSCENC =      2072.13779208
  Ewald energy   TEWEN  =    -13128.56753353
  -Hartree energ DENC   =     -1360.28562836
  -exchange      EXHF   =         0.00000000
  -V(xc)+E(xc)   XCENC  =     -3374.87227095
  PAW double counting   =     24287.31907973   -20463.02707119
  entropy T*S    EENTRO =         0.00226313
  eigenvalues    EBANDS =       143.65052125
  atomic energy  EATOM  =     10962.30518601
  Solvation  Ediel_sol  =         0.00000000
  ---------------------------------------------------
  free energy    TOTEN  =      -861.33766183 eV

  energy without entropy =     -861.33992497  energy(sigma->0) =     -861.33841621


--------------------------------------------------------------------------------------------------------




----------------------------------------- Iteration    1(   9)  ---------------------------------------


    POTLOK:  cpu time    0.1147: real time    0.1229
    SETDIJ:  cpu time    0.0184: real time    0.0254
     EDDAV:  cpu time   19.0615: real time   19.3755
       DOS:  cpu time    0.0028: real time    0.0028
    CHARGE:  cpu time    0.5664: real time    0.5737
    MIXING:  cpu time    0.0042: real time    0.0045
    --------------------------------------------
      LOOP:  cpu time   19.7695: real time   20.1110

 eigenvalue-minimisations  : 16288
 total energy-change (2. order) : 0.1047279E+03  (-0.6801670E+02)
 number of electron     398.0000034 magnetization 
 augmentation part      106.8808934 magnetization 

 Broyden mixing:
  rms(total) = 0.27275E+01    rms(broyden)= 0.27274E+01
  rms(prec ) = 0.49672E+01
  weight for this iteration     100.00

 eigenvalues of (default mixing * dielectric matrix)
  average eigenvalue GAMMA=   0.4970
  1.2786  0.2961  0.2961  0.1173

 Free energy of the ion-electron system (eV)
  ---------------------------------------------------
  alpha Z        PSCENC =      2072.13779208
  Ewald energy   TEWEN  =    -13128.56753353
  -Hartree energ DENC   =     -1374.83664620
  -exchange      EXHF   =         0.00000000
  -V(xc)+E(xc)   XCENC  =     -3374.40791033
  PAW double counting   =     24808.85652336   -20989.89437533
  entropy T*S    EENTRO =         0.00095370
  eigenvalues    EBANDS =       267.79622181
  atomic energy  EATOM  =     10962.30518601
  Solvation  Ediel_sol  =         0.00000000
  ---------------------------------------------------
  free energy    TOTEN  =      -756.60978843 eV

  energy without entropy =     -756.61074213  energy(sigma->0) =     -756.61010633


--------------------------------------------------------------------------------------------------------




----------------------------------------- Iteration    1(  10)  ---------------------------------------


    POTLOK:  cpu time    0.1137: real time    0.1150
    SETDIJ:  cpu time    0.0175: real time    0.0178
     EDDAV:  cpu time   19.0015: real time   19.6048
       DOS:  cpu time    0.0029: real time    0.0029
    CHARGE:  cpu time    0.5406: real time    0.5465
    MIXING:  cpu time    0.0045: real time    0.0045
    --------------------------------------------
      LOOP:  cpu time   19.6821: real time   20.2973

 eigenvalue-minimisations  : 16000
 total energy-change (2. order) : 0.5471484E+01  (-0.1428252E+02)
 number of electron     398.0000035 magnetization 
 augmentation part      105.1694719 magnetization 

 Broyden mixing:
  rms(total) = 0.17586E+01    rms(broyden)= 0.17585E+01
  rms(prec ) = 0.27131E+01
  weight for this iteration     100.00

 eigenvalues of (default mixing * dielectric matrix)
  average eigenvalue GAMMA=   0.4723
  1.3560  0.3202  0.3202  0.1150  0.2503

 Free energy of the ion-electron system (eV)
  ---------------------------------------------------
  alpha Z        PSCENC =      2072.13779208
  Ewald energy   TEWEN  =    -13128.56753353
  -Hartree energ DENC   =     -1376.84750742
  -exchange      EXHF   =         0.00000000
  -V(xc)+E(xc)   XCENC  =     -3372.78305879
  PAW double counting   =     25359.35126774   -21540.31309167
  entropy T*S    EENTRO =         0.00234427
  eigenvalues    EBANDS =       273.57629708
  atomic energy  EATOM  =     10962.30518601
  Solvation  Ediel_sol  =         0.00000000
  ---------------------------------------------------
  free energy    TOTEN  =      -751.13830423 eV

  energy without entropy =     -751.14064850  energy(sigma->0) =     -751.13908565


--------------------------------------------------------------------------------------------------------




----------------------------------------- Iteration    1(  11)  ---------------------------------------


    POTLOK:  cpu time    0.1134: real time    0.1148
    SETDIJ:  cpu time    0.0303: real time    0.0306
     EDDAV:  cpu time   19.1497: real time   19.4830
       DOS:  cpu time    0.0032: real time    0.0032
    CHARGE:  cpu time    0.5480: real time    0.5540
    MIXING:  cpu time    0.0048: real time    0.0048
    --------------------------------------------
      LOOP:  cpu time   19.8507: real time   20.1960

 eigenvalue-minimisations  : 16416
 total energy-change (2. order) : 0.6664912E+00  (-0.3217522E+01)
 number of electron     398.0000035 magnetization 
 augmentation part      105.8057082 magnetization 

 Broyden mixing:
  rms(total) = 0.13749E+01    rms(broyden)= 0.13749E+01
  rms(prec ) = 0.30140E+01
  weight for this iteration     100.00

 eigenvalues of (default mixing * dielectric matrix)
  average eigenvalue GAMMA=   0.4333
  1.3913  0.3468  0.3468  0.2684  0.1161  0.1306

 Free energy of the ion-electron system (eV)
  ---------------------------------------------------
  alpha Z        PSCENC =      2072.13779208
  Ewald energy   TEWEN  =    -13128.56753353
  -Hartree energ DENC   =     -1380.73386839
  -exchange      EXHF   =         0.00000000
  -V(xc)+E(xc)   XCENC  =     -3371.17561692
  PAW double counting   =     25945.57305211   -22126.60936558
  entropy T*S    EENTRO =         0.00253783
  eigenvalues    EBANDS =       276.59600334
  atomic energy  EATOM  =     10962.30518601
  Solvation  Ediel_sol  =         0.00000000
  ---------------------------------------------------
  free energy    TOTEN  =      -750.47181305 eV

  energy without entropy =     -750.47435089  energy(sigma->0) =     -750.47265900


--------------------------------------------------------------------------------------------------------




----------------------------------------- Iteration    1(  12)  ---------------------------------------


    POTLOK:  cpu time    0.1230: real time    0.1275
    SETDIJ:  cpu time    0.0165: real time    0.0166
     EDDAV:  cpu time   19.7064: real time   20.0848
       DOS:  cpu time    0.0031: real time    0.0031
    CHARGE:  cpu time    0.5410: real time    0.5474
    MIXING:  cpu time    0.0057: real time    0.0060
    --------------------------------------------
      LOOP:  cpu time   20.3972: real time   20.7907

 eigenvalue-minimisations  : 16992
 total energy-change (2. order) : 0.1867987E+01  (-0.1278897E+01)
 number of electron     398.0000038 magnetization 
 augmentation part      106.2776261 magnetization 

 Broyden mixing:
  rms(total) = 0.10481E+01    rms(broyden)= 0.10481E+01
  rms(prec ) = 0.17116E+01
  weight for this iteration     100.00

 eigenvalues of (default mixing * dielectric matrix)
  average eigenvalue GAMMA=   0.4303
  1.4659  0.4254  0.4254  0.2954  0.2107  0.1145  0.0746

 Free energy of the ion-electron system (eV)
  ---------------------------------------------------
  alpha Z        PSCENC =      2072.13779208
  Ewald energy   TEWEN  =    -13128.56753353
  -Hartree energ DENC   =     -1376.05369840
  -exchange      EXHF   =         0.00000000
  -V(xc)+E(xc)   XCENC  =     -3370.52442791
  PAW double counting   =     26214.62564573   -22395.96024967
  entropy T*S    EENTRO =         0.00014714
  eigenvalues    EBANDS =       273.43331221
  atomic energy  EATOM  =     10962.30518601
  Solvation  Ediel_sol  =         0.00000000
  ---------------------------------------------------
  free energy    TOTEN  =      -748.60382634 eV

  energy without entropy =     -748.60397348  energy(sigma->0) =     -748.60387539


--------------------------------------------------------------------------------------------------------




----------------------------------------- Iteration    1(  13)  ---------------------------------------


    POTLOK:  cpu time    0.1229: real time    0.1244
    SETDIJ:  cpu time    0.0472: real time    0.0480
     EDDAV:  cpu time   18.3245: real time   18.8024
       DOS:  cpu time    0.0031: real time    0.0031
    CHARGE:  cpu time    0.5488: real time    0.5806
    MIXING:  cpu time    0.0046: real time    0.0046
    --------------------------------------------
      LOOP:  cpu time   19.0525: real time   19.5688

 eigenvalue-minimisations  : 15304
 total energy-change (2. order) : 0.1273838E+01  (-0.4298707E+00)
 number of electron     398.0000038 magnetization 
 augmentation part      107.2740191 magnetization 

 Broyden mixing:
  rms(total) = 0.56421E+00    rms(broyden)= 0.56420E+00
  rms(prec ) = 0.69524E+00
  weight for this iteration     100.00

 eigenvalues of (default mixing * dielectric matrix)
  average eigenvalue GAMMA=   0.4656
  1.5368  0.5597  0.5597  0.3219  0.3219  0.2343  0.1146  0.0756

 Free energy of the ion-electron system (eV)
  ---------------------------------------------------
  alpha Z        PSCENC =      2072.13779208
  Ewald energy   TEWEN  =    -13128.56753353
  -Hartree energ DENC   =     -1366.64102245
  -exchange      EXHF   =         0.00000000
  -V(xc)+E(xc)   XCENC  =     -3369.26252381
  PAW double counting   =     26841.36221991   -23024.09670989
  entropy T*S    EENTRO =        -0.00150855
  eigenvalues    EBANDS =       265.43411219
  atomic energy  EATOM  =     10962.30518601
  Solvation  Ediel_sol  =         0.00000000
  ---------------------------------------------------
  free energy    TOTEN  =      -747.32998805 eV

  energy without entropy =     -747.32847950  energy(sigma->0) =     -747.32948520


--------------------------------------------------------------------------------------------------------




----------------------------------------- Iteration    1(  14)  ---------------------------------------


    POTLOK:  cpu time    0.1148: real time    0.1161
    SETDIJ:  cpu time    0.0302: real time    0.0309
     EDDAV:  cpu time   17.8309: real time   18.1404
       DOS:  cpu time    0.0028: real time    0.0028
    CHARGE:  cpu time    0.5417: real time    0.5466
    MIXING:  cpu time    0.0048: real time    0.0051
    --------------------------------------------
      LOOP:  cpu time   18.5267: real time   18.8469

 eigenvalue-minimisations  : 15056
 total energy-change (2. order) : 0.1881680E+00  (-0.2383890E+00)
 number of electron     398.0000038 magnetization 
 augmentation part      107.8595024 magnetization 

 Broyden mixing:
  rms(total) = 0.42859E+00    rms(broyden)= 0.42859E+00
  rms(prec ) = 0.62874E+00
  weight for this iteration     100.00

 eigenvalues of (default mixing * dielectric matrix)
  average eigenvalue GAMMA=   0.5246
  1.6590  1.1228  0.5110  0.4070  0.4070  0.2331  0.1915  0.1145  0.0752

 Free energy of the ion-electron system (eV)
  ---------------------------------------------------
  alpha Z        PSCENC =      2072.13779208
  Ewald energy   TEWEN  =    -13128.56753353
  -Hartree energ DENC   =     -1360.16927094
  -exchange      EXHF   =         0.00000000
  -V(xc)+E(xc)   XCENC  =     -3368.58611231
  PAW double counting   =     27260.72114916   -23445.19193259
  entropy T*S    EENTRO =        -0.00054603
  eigenvalues    EBANDS =       260.20944805
  atomic energy  EATOM  =     10962.30518601
  Solvation  Ediel_sol  =         0.00000000
  ---------------------------------------------------
  free energy    TOTEN  =      -747.14182010 eV

  energy without entropy =     -747.14127407  energy(sigma->0) =     -747.14163809


--------------------------------------------------------------------------------------------------------




----------------------------------------- Iteration    1(  15)  ---------------------------------------


    POTLOK:  cpu time    0.1140: real time    0.1151
    SETDIJ:  cpu time    0.0262: real time    0.0283
     EDDAV:  cpu time   17.9668: real time   18.2580
       DOS:  cpu time    0.0028: real time    0.0028
    CHARGE:  cpu time    0.5416: real time    0.5465
    MIXING:  cpu time    0.0053: real time    0.0053
    --------------------------------------------
      LOOP:  cpu time   18.6580: real time   18.9618

 eigenvalue-minimisations  : 15096
 total energy-change (2. order) : 0.9911437E-01  (-0.2332805E+00)
 number of electron     398.0000038 magnetization 
 augmentation part      108.4146834 magnetization 

 Broyden mixing:
  rms(total) = 0.37069E+00    rms(broyden)= 0.37068E+00
  rms(prec ) = 0.56968E+00
  weight for this iteration     100.00

 eigenvalues of (default mixing * dielectric matrix)
  average eigenvalue GAMMA=   0.5430
  1.6895  1.4966  0.5809  0.4088  0.4088  0.2671  0.2196  0.1145  0.1688  0.0751

 Free energy of the ion-electron system (eV)
  ---------------------------------------------------
  alpha Z        PSCENC =      2072.13779208
  Ewald energy   TEWEN  =    -13128.56753353
  -Hartree energ DENC   =     -1354.17019653
  -exchange      EXHF   =         0.00000000
  -V(xc)+E(xc)   XCENC  =     -3367.75536730
  PAW double counting   =     27828.70936657   -24016.27499675
  entropy T*S    EENTRO =        -0.00179525
  eigenvalues    EBANDS =       256.57483897
  atomic energy  EATOM  =     10962.30518601
  Solvation  Ediel_sol  =         0.00000000
  ---------------------------------------------------
  free energy    TOTEN  =      -747.04270573 eV

  energy without entropy =     -747.04091049  energy(sigma->0) =     -747.04210732


--------------------------------------------------------------------------------------------------------




----------------------------------------- Iteration    1(  16)  ---------------------------------------


    POTLOK:  cpu time    0.1146: real time    0.1146
    SETDIJ:  cpu time    0.0275: real time    0.0275
     EDDAV:  cpu time   17.9761: real time   18.1228
       DOS:  cpu time    0.0026: real time    0.0026
    CHARGE:  cpu time    0.5492: real time    0.5497
    MIXING:  cpu time    0.0114: real time    0.1130
    --------------------------------------------
      LOOP:  cpu time   18.6828: real time   18.9357

 eigenvalue-minimisations  : 14984
 total energy-change (2. order) : 0.2031008E+00  (-0.1573130E+00)
 number of electron     398.0000039 magnetization 
 augmentation part      108.5590594 magnetization 

 Broyden mixing:
  rms(total) = 0.16311E+00    rms(broyden)= 0.16311E+00
  rms(prec ) = 0.25524E+00
  weight for this iteration     100.00

 eigenvalues of (default mixing * dielectric matrix)
  average eigenvalue GAMMA=   0.5613
  1.8753  1.5465  0.6497  0.4339  0.4339  0.4185  0.2337  0.2337  0.1145  0.1592
  0.0752

 Free energy of the ion-electron system (eV)
  ---------------------------------------------------
  alpha Z        PSCENC =      2072.13779208
  Ewald energy   TEWEN  =    -13128.56753353
  -Hartree energ DENC   =     -1353.81573611
  -exchange      EXHF   =         0.00000000
  -V(xc)+E(xc)   XCENC  =     -3367.41553323
  PAW double counting   =     28079.81457763   -24269.06845384
[...]
   -.126E+02 -.678E+00 0.344E+02   0.131E+02 0.681E+00 -.344E+02   0.418E+00 -.375E-02 -.205E-01   0.102E-03 -.891E-04 -.892E-04
   -.926E+01 -.905E+00 0.362E+02   0.969E+01 0.862E+00 -.362E+02   0.492E+00 -.118E-02 0.218E-01   -.134E-03 -.103E-03 0.129E-03
   -.129E+02 0.666E+00 0.350E+02   0.133E+02 -.644E+00 -.350E+02   0.473E+00 -.403E-01 0.162E-01   0.854E-04 0.867E-04 -.115E-03
   -.904E+01 0.833E+00 0.369E+02   0.946E+01 -.834E+00 -.369E+02   0.479E+00 -.296E-02 0.723E-02   -.118E-03 0.105E-03 -.148E-05
   0.123E+02 -.792E+01 -.153E+02   -.121E+02 0.757E+01 0.155E+02   -.167E+00 0.353E+00 -.222E+00   -.107E-03 0.122E-03 0.783E-04
   -.796E+01 -.158E+02 -.211E+02   0.766E+01 0.156E+02 0.213E+02   0.292E+00 0.237E+00 -.190E+00   -.542E-04 -.540E-04 -.459E-04
   0.119E+02 0.120E+02 -.210E+02   -.120E+02 -.115E+02 0.207E+02   0.597E-01 -.450E+00 0.268E+00   0.388E-04 0.428E-04 0.443E-03
   -.357E+02 0.576E+02 -.688E+02   0.363E+02 -.574E+02 0.690E+02   -.591E+00 -.284E+00 -.269E+00   -.220E-03 0.418E-03 -.295E-03
   0.626E+01 -.224E+01 0.663E+01   -.632E+01 0.244E+01 -.671E+01   0.577E-01 -.201E+00 0.823E-01   0.916E-04 0.273E-03 0.583E-03
   -.887E+01 -.149E+02 0.138E+02   0.832E+01 0.152E+02 -.140E+02   0.547E+00 -.304E+00 0.206E+00   -.173E-03 0.196E-04 0.512E-03
   0.138E+02 0.491E+01 0.143E+02   -.140E+02 -.494E+01 -.142E+02   0.236E+00 0.345E-01 -.161E+00   0.163E-03 -.678E-04 0.351E-03
   -.347E+02 0.415E+02 0.731E+02   0.344E+02 -.419E+02 -.736E+02   0.298E+00 0.442E+00 0.500E+00   -.343E-03 0.184E-03 0.806E-03
   0.428E+01 -.144E+01 0.320E+02   -.441E+01 0.147E+01 -.322E+02   0.252E+00 0.370E-03 0.864E-01   0.686E-04 -.556E-04 0.535E-04
   -.352E+00 -.196E+01 0.401E+02   0.428E+00 0.185E+01 -.404E+02   0.177E+00 0.835E-01 0.849E-01   -.204E-04 -.297E-04 0.292E-03
   0.435E+01 0.107E+01 0.332E+02   -.437E+01 -.108E+01 -.334E+02   0.185E+00 0.199E-01 0.806E-01   0.233E-04 0.711E-04 -.728E-04
   -.561E+00 0.163E+01 0.439E+02   0.582E+00 -.159E+01 -.441E+02   0.122E+00 -.690E-01 -.110E-01   0.388E-04 0.414E-04 0.211E-03
   0.330E+01 0.132E+01 -.260E+01   -.309E+01 -.148E+01 0.277E+01   -.221E+00 0.124E+00 -.279E+00   -.329E-03 0.806E-04 0.241E-04
   0.190E+01 0.120E+01 -.385E+01   -.167E+01 -.133E+01 0.391E+01   -.153E+00 0.101E+00 -.212E+00   0.328E-03 0.144E-03 0.774E-04
   0.288E+01 -.211E+01 -.877E+01   -.275E+01 0.223E+01 0.855E+01   -.712E-01 0.209E-01 -.101E+00   -.256E-03 -.812E-04 0.695E-04
   0.180E+01 -.200E+01 -.978E+01   -.162E+01 0.212E+01 0.955E+01   -.640E-01 -.141E-01 -.504E-01   0.273E-03 -.149E-03 0.165E-03
   -.330E+01 -.132E+01 -.260E+01   0.309E+01 0.148E+01 0.277E+01   0.221E+00 -.124E+00 -.279E+00   0.329E-03 -.806E-04 0.241E-04
   -.190E+01 -.120E+01 -.385E+01   0.167E+01 0.133E+01 0.391E+01   0.153E+00 -.101E+00 -.212E+00   -.328E-03 -.144E-03 0.774E-04
   -.288E+01 0.211E+01 -.877E+01   0.275E+01 -.223E+01 0.855E+01   0.712E-01 -.209E-01 -.101E+00   0.256E-03 0.812E-04 0.696E-04
   -.180E+01 0.200E+01 -.978E+01   0.162E+01 -.212E+01 0.955E+01   0.640E-01 0.141E-01 -.504E-01   -.273E-03 0.149E-03 0.165E-03
   -.111E+02 0.826E+00 0.168E+02   0.115E+02 -.857E+00 -.174E+02   -.311E-01 0.325E-01 0.531E+00   0.228E-03 0.120E-03 -.363E-04
   -.980E+01 0.846E+00 0.173E+02   0.102E+02 -.862E+00 -.179E+02   -.429E-01 0.304E-01 0.512E+00   -.228E-03 0.142E-03 0.205E-03
   -.111E+02 -.884E+00 0.158E+02   0.115E+02 0.936E+00 -.163E+02   -.298E-01 0.878E-02 0.514E+00   0.198E-03 -.117E-03 -.438E-04
   -.980E+01 -.904E+00 0.166E+02   0.102E+02 0.946E+00 -.170E+02   -.258E-01 -.175E-01 0.488E+00   -.213E-03 -.142E-03 0.152E-03
   0.111E+02 -.826E+00 0.168E+02   -.115E+02 0.857E+00 -.174E+02   0.311E-01 -.325E-01 0.531E+00   -.228E-03 -.120E-03 -.364E-04
   0.980E+01 -.846E+00 0.173E+02   -.102E+02 0.862E+00 -.179E+02   0.429E-01 -.304E-01 0.512E+00   0.228E-03 -.142E-03 0.205E-03
   0.111E+02 0.884E+00 0.158E+02   -.115E+02 -.936E+00 -.163E+02   0.298E-01 -.878E-02 0.514E+00   -.198E-03 0.117E-03 -.438E-04
   0.980E+01 0.904E+00 0.166E+02   -.102E+02 -.946E+00 -.170E+02   0.258E-01 0.175E-01 0.488E+00   0.213E-03 0.142E-03 0.152E-03
   0.685E+01 0.381E+00 -.256E+02   -.660E+01 -.225E+00 0.258E+02   -.249E+00 -.155E+00 -.292E+00   -.233E-03 0.623E-05 -.619E-03
   0.393E+01 0.268E+00 -.252E+02   -.381E+01 -.203E-01 0.256E+02   -.119E+00 -.248E+00 -.384E+00   0.194E-03 0.315E-04 -.729E-03
   0.478E+01 -.573E+01 -.141E+02   -.470E+01 0.542E+01 0.137E+02   -.849E-01 0.310E+00 0.409E+00   -.131E-03 -.375E-04 -.466E-03
   0.261E+01 -.439E+01 -.137E+02   -.263E+01 0.421E+01 0.134E+02   0.218E-01 0.174E+00 0.285E+00   0.278E-03 -.553E-04 -.693E-03
   -.685E+01 -.381E+00 -.256E+02   0.660E+01 0.225E+00 0.258E+02   0.249E+00 0.155E+00 -.292E+00   0.233E-03 -.630E-05 -.619E-03
   -.393E+01 -.268E+00 -.252E+02   0.381E+01 0.203E-01 0.256E+02   0.119E+00 0.248E+00 -.384E+00   -.194E-03 -.316E-04 -.729E-03
   -.478E+01 0.573E+01 -.141E+02   0.470E+01 -.542E+01 0.137E+02   0.849E-01 -.310E+00 0.409E+00   0.131E-03 0.376E-04 -.466E-03
   -.261E+01 0.439E+01 -.137E+02   0.263E+01 -.421E+01 0.134E+02   -.218E-01 -.174E+00 0.285E+00   -.278E-03 0.554E-04 -.693E-03
   -.193E+01 0.136E-01 -.225E+02   0.188E+01 -.319E+00 0.225E+02   0.523E-01 0.304E+00 -.866E-01   0.150E-03 -.496E-04 -.445E-03
   0.184E+01 0.823E+00 -.280E+02   -.231E+01 -.102E+01 0.280E+02   0.477E+00 0.195E+00 -.415E-02   -.800E-04 0.309E-04 -.545E-03
   -.310E+01 -.115E+01 -.210E+02   0.317E+01 0.134E+01 0.210E+02   -.700E-01 -.191E+00 0.428E-02   0.218E-04 -.326E-04 -.543E-03
   0.303E+00 -.236E+00 -.307E+02   -.283E+00 0.555E+00 0.306E+02   -.199E-01 -.319E+00 0.476E-01   -.134E-03 -.649E-04 -.635E-03
   0.193E+01 -.136E-01 -.225E+02   -.188E+01 0.319E+00 0.225E+02   -.523E-01 -.304E+00 -.866E-01   -.150E-03 0.496E-04 -.445E-03
   -.184E+01 -.823E+00 -.280E+02   0.231E+01 0.102E+01 0.280E+02   -.477E+00 -.195E+00 -.415E-02   0.800E-04 -.310E-04 -.545E-03
   0.310E+01 0.115E+01 -.210E+02   -.317E+01 -.134E+01 0.210E+02   0.700E-01 0.191E+00 0.428E-02   -.219E-04 0.327E-04 -.543E-03
   -.303E+00 0.236E+00 -.307E+02   0.283E+00 -.555E+00 0.306E+02   0.199E-01 0.319E+00 0.476E-01   0.134E-03 0.649E-04 -.635E-03
   0.992E+01 0.235E+00 -.178E+02   -.964E+01 -.406E+00 0.177E+02   -.277E+00 0.171E+00 0.763E-01   -.142E-03 0.369E-04 -.840E-04
   -.357E+01 0.386E+01 -.280E+02   0.392E+01 -.408E+01 0.280E+02   -.350E+00 0.219E+00 0.501E-01   0.610E-04 0.118E-04 -.187E-03
   0.137E+02 -.613E+01 -.344E+02   -.132E+02 0.598E+01 0.343E+02   -.496E+00 0.153E+00 0.369E-01   -.591E-04 -.119E-03 -.122E-03
   -.232E+02 -.184E+02 -.669E+02   0.236E+02 0.184E+02 0.671E+02   -.470E+00 -.228E-01 -.205E+00   -.193E-04 -.184E-03 -.309E-03
   -.992E+01 -.235E+00 -.178E+02   0.964E+01 0.406E+00 0.177E+02   0.277E+00 -.171E+00 0.763E-01   0.142E-03 -.370E-04 -.840E-04
   0.357E+01 -.386E+01 -.280E+02   -.392E+01 0.408E+01 0.280E+02   0.350E+00 -.219E+00 0.501E-01   -.610E-04 -.119E-04 -.187E-03
   -.137E+02 0.613E+01 -.344E+02   0.132E+02 -.598E+01 0.343E+02   0.496E+00 -.153E+00 0.369E-01   0.590E-04 0.119E-03 -.122E-03
   0.232E+02 0.184E+02 -.669E+02   -.236E+02 -.184E+02 0.671E+02   0.470E+00 0.228E-01 -.205E+00   0.194E-04 0.184E-03 -.309E-03
   -.505E+01 -.803E+01 -.202E+02   0.540E+01 0.838E+01 0.209E+02   -.411E-01 0.196E+00 -.291E+00   0.256E-03 -.659E-04 -.161E-03
   -.238E+01 -.785E+01 -.208E+02   0.257E+01 0.831E+01 0.214E+02   0.369E-02 0.689E-01 -.370E+00   -.309E-03 -.571E-04 -.259E-03
   0.505E+01 0.803E+01 -.202E+02   -.540E+01 -.838E+01 0.209E+02   0.411E-01 -.196E+00 -.291E+00   -.256E-03 0.659E-04 -.161E-03
   0.238E+01 0.785E+01 -.208E+02   -.257E+01 -.831E+01 0.214E+02   -.369E-02 -.689E-01 -.370E+00   0.309E-03 0.571E-04 -.259E-03
   -.709E+01 0.337E+01 -.179E+02   0.729E+01 -.343E+01 0.183E+02   0.592E-01 -.185E+00 -.185E+00   0.273E-03 0.583E-04 -.247E-03
   -.407E+01 0.319E+01 -.193E+02   0.438E+01 -.316E+01 0.198E+02   -.144E+00 -.142E+00 -.133E+00   -.264E-03 0.478E-04 -.415E-03
   0.709E+01 -.337E+01 -.179E+02   -.729E+01 0.343E+01 0.183E+02   -.592E-01 0.185E+00 -.185E+00   -.273E-03 -.583E-04 -.247E-03
   0.407E+01 -.319E+01 -.193E+02   -.438E+01 0.316E+01 0.198E+02   0.144E+00 0.142E+00 -.133E+00   0.264E-03 -.478E-04 -.415E-03
   0.586E-04 -.718E-04 -.357E+02   -.214E-03 0.267E-03 0.380E+02   0.000E+00 0.000E+00 -.230E+01   0.474E-06 -.801E-07 0.111E-02
 -----------------------------------------------------------------------------------------------
   -.123E-02 0.165E-03 0.333E+00   0.605E-13 0.421E-13 0.234E-12   -.167E-15 0.000E+00 -.456E+00   0.391E-06 -.554E-07 0.102E-02
 
 
 POSITION                                       TOTAL-FORCE (eV/Angst)
 -----------------------------------------------------------------------------------
      1.28075      3.56302      7.58339         0.001480     -0.001477     -0.000853
      6.10485      3.36447      7.68290         0.000751     -0.000874     -0.000064
      1.59186      8.31805      7.45076        -0.001005     -0.000178      0.001510
      6.09773      8.71699      7.81365        -0.000565     -0.000611     -0.001160
      1.49360      3.57396      4.39455        -0.000474     -0.001427      0.000540
      6.27628      3.48161      4.25908         0.000108      0.000881     -0.000814
      1.57540      8.19706      4.43050        -0.000805      0.000499     -0.000780
      6.21302      8.31968      4.33740         0.000311     -0.000014      0.000122
      1.58550      3.50657      1.44092        -0.123820     -0.032621     -0.130283
      6.34201      3.50657      1.44092        -0.253252      0.024798     -0.305194
      1.58550      8.18200      1.44092        -0.164069     -0.015383     -0.065658
      6.34201      8.18200      1.44092        -0.142708      0.025136     -0.215860
      3.70131      3.31478      5.94381         0.000136     -0.000098     -0.000031
      8.54576      3.37991      5.88249        -0.000864     -0.002092     -0.001462
      4.02630      7.97277      6.07256        -0.001497     -0.000753      0.000180
      8.82063      8.63822      5.94537        -0.000137     -0.000641      0.000468
      3.96376      3.50657      2.88185        -0.571349      0.109704      0.329311
      8.72027      3.50657      2.88185        -0.168505     -0.082887     -0.229056
      3.96376      8.18200      2.88185        -0.424744     -0.128873      0.038046
      8.72027      8.18200      2.88185        -0.318885     -0.151724      0.318429
      3.96376      3.50657      0.00000        -0.917602      0.000902     -0.044509
      8.72027      3.50657      0.00000        -0.920308      0.044402     -0.059563
      3.96376      8.18200      0.00000        -0.882603      0.018571      0.003216
      8.72027      8.18200      0.00000        -0.892704      0.003111      0.038362
      1.05520      1.36065      5.94379        -0.000136      0.000098     -0.000031
      5.72377      1.29552      5.88247         0.000864      0.002092     -0.001462
      0.73021      6.05352      6.07254         0.001497      0.000753      0.000180
      5.44890      5.38807      5.94536         0.000137      0.000641      0.000468
      0.79275      1.16886      2.88185         0.571349     -0.109704      0.329311
      5.54926      1.16886      2.88185         0.168505      0.082887     -0.229056
      0.79275      5.84429      2.88185         0.424744      0.128873      0.038046
      5.54926      5.84429      2.88185         0.318885      0.151724      0.318429
      0.79275      1.16886      0.00000         0.917602     -0.000902     -0.044509
      5.54926      1.16886      0.00000         0.920308     -0.044402     -0.059563
      0.79275      5.84429      0.00000         0.882603     -0.018571      0.003216
      5.54926      5.84429      0.00000         0.892704     -0.003111      0.038362
      3.47575      1.11241      7.58339        -0.001480      0.001477     -0.000853
      8.16467      1.31096      7.68290        -0.000751      0.000874     -0.000064
      3.16464      5.70824      7.45076         0.001005      0.000178      0.001510
      8.17179      5.30930      7.81365         0.000565      0.000611     -0.001160
      3.26290      1.10147      4.39455         0.000474      0.001427      0.000540
      7.99324      1.19382      4.25908        -0.000108     -0.000881     -0.000814
      3.18111      5.82923      4.43050         0.000805     -0.000499     -0.000780
      8.05650      5.70661      4.33740        -0.000311      0.000014      0.000122
      3.17100      1.16886      1.44092         0.123820      0.032621     -0.130283
      7.92751      1.16886      1.44092         0.253252     -0.024798     -0.305194
      3.17100      5.84429      1.44092         0.164069      0.015383     -0.065658
      7.92751      5.84429      1.44092         0.142708     -0.025136     -0.215860
      3.56738      3.50657     15.27806        -0.009641     -0.034669     -0.104215
      8.32389      3.50657     15.27806         0.086651     -0.031690     -0.151079
      3.56738      8.18200     15.27806         0.060203      0.136957     -0.317619
      8.32389      8.18200     15.27806         0.118321      0.105649     -0.283086
      1.18913      1.16886     15.27806         0.009641      0.034669     -0.104215
      5.94564      1.16886     15.27806        -0.086651      0.031690     -0.151079
      1.18913      5.84429     15.27806        -0.060203     -0.136957     -0.317619
      5.94564      5.84429     15.27806        -0.118321     -0.105649     -0.283086
      1.18913      3.50657     16.87954         0.370896      0.001693     -0.035225
      5.94564      3.50657     16.87954         0.346571      0.013940     -0.047903
      1.18913      8.18200     16.87954         0.350697      0.060660      0.019989
      5.94564      8.18200     16.87954         0.337575      0.024119      0.036207
      3.56738      1.16886     16.87954        -0.370896     -0.001693     -0.035225
      8.32389      1.16886     16.87954        -0.346571     -0.013940     -0.047903
      3.56738      5.84429     16.87954        -0.350697     -0.060660      0.019989
      8.32389      5.84429     16.87954        -0.337575     -0.024119      0.036207
      3.80873      3.39953     12.04250         0.000715      0.000220     -0.000785
      8.50210      3.39615     12.12017        -0.000539     -0.000754     -0.000533
      3.64525      8.13188     12.35307         0.000913     -0.000919     -0.000481
      8.41127      8.13185     12.39831         0.001525     -0.000066     -0.000932
      0.94778      1.27590     12.04250        -0.000715     -0.000220     -0.000785
      5.76743      1.27928     12.12017         0.000539      0.000754     -0.000533
      1.11126      5.89441     12.35307        -0.000913      0.000919     -0.000481
      5.85826      5.89444     12.39831        -0.001525      0.000066     -0.000932
      1.50167      3.68622     10.65045         0.001009     -0.001394     -0.000533
      6.21182      3.84040     10.61832         0.000115      0.000199      0.000464
      1.24778      8.18632     10.74268        -0.001927      0.000042     -0.000550
      5.99865      8.14340     10.74206        -0.000286     -0.000584      0.000106
      3.25484      0.98921     10.65045        -0.001009      0.001394     -0.000533
      8.05771      0.83503     10.61832        -0.000115     -0.000199      0.000464
      3.50873      5.83997     10.74268         0.001927     -0.000042     -0.000550
      8.27088      5.88289     10.74206         0.000286      0.000584      0.000106
      3.78717      3.46920      9.17476         0.000314      0.000732      0.000927
      8.63528      3.29259      9.39486        -0.000500      0.000726      0.000507
      3.68702      8.01162      9.07092        -0.000781      0.000880     -0.000392
      8.57872      7.96229      8.83910        -0.000133     -0.001160      0.000283
      0.96934      1.20623      9.17476        -0.000314     -0.000732      0.000927
      5.63425      1.38284      9.39486         0.000500     -0.000726      0.000507
      1.06949      6.01467      9.07092         0.000781     -0.000880     -0.000392
      5.69081      6.06400      8.83910         0.000133      0.001160      0.000283
      1.18913      8.18200     13.67663         0.307037      0.545709      0.320980
      5.94564      8.18200     13.67663         0.197859      0.530280      0.237795
      3.56738      5.84429     13.67663        -0.307037     -0.545709      0.320980
      8.32389      5.84429     13.67663        -0.197859     -0.530280      0.237795
      1.18913      3.50657     13.67663         0.260696     -0.246318      0.286101
      5.94564      3.50657     13.67663         0.170551     -0.109331      0.364781
      3.56738      1.16886     13.67663        -0.260696      0.246318      0.286101
      8.32389      1.16886     13.67663        -0.170551      0.109331      0.364781
      7.13476      7.01315      6.26530        -0.000000      0.000000      0.000585
 -----------------------------------------------------------------------------------
    total drift:                               -0.001233      0.000165     -0.121869


--------------------------------------------------------------------------------------------------------



  FREE ENERGIE OF THE ION-ELECTRON SYSTEM (eV)
  ---------------------------------------------------
  free  energy   TOTEN  =      -746.79590907 eV

  energy  without entropy=     -746.79520864  energy(sigma->0) =     -746.79567559
 
 d Force = 0.1393682E-04[ 0.724E-05, 0.206E-04]  d Energy = 0.1310393E-04 0.833E-06
 d Force =-0.7714876E-01[-0.772E-01,-0.771E-01]  d Ewald  =-0.7714929E-01 0.532E-06


--------------------------------------------------------------------------------------------------------


    POTLOK:  cpu time    0.1482: real time    0.1483


--------------------------------------------------------------------------------------------------------


 stress matrix after NEB project (eV)
     -3.16160      3.90885      0.00000
      3.90885    -31.78181      0.00000
      0.00000      0.00000    -39.56568
  FORCES: max atom, RMS     0.002694    0.001008
  FORCE total and by dimension    0.009926    0.002092
  Stress total and by dimension   51.147636   39.565681
 Steepest descent step on ions:
 trial-energy change:   -0.000013  1 .order   -0.000014   -0.000021   -0.000007
  (g-gl).g = 0.206E-04      g.g   = 0.206E-04  gl.gl    = 0.000E+00
 g(Force)  = 0.206E-04   g(Stress)= 0.000E+00 ortho     = 0.000E+00
 gamma     =   0.00000
 trial     =   1.00000
 opt step  =   1.54040  (harmonic =   1.54040) maximal distance =0.00035830
 next E    =  -746.795912   (d E  =  -0.00002)


--------------------------------------------------------------------------------------------------------


  
 reached required accuracy - stopping structural energy minimisation
     LOOP+:  cpu time  225.7201: real time  228.4564
    4ORBIT:  cpu time    0.0000: real time    0.0000

 total amount of memory used by VASP on root node   160409. kBytes
========================================================================

   base      :      30000. kBytes
   nonlr-proj:      13829. kBytes
   fftplans  :       6964. kBytes
   grid      :      11468. kBytes
   one-center:        139. kBytes
   wavefun   :      98009. kBytes
 
  
  
 General timing and accounting informations for this job:
 ========================================================
  
                  Total CPU time used (sec):      926.356
                            User time (sec):      920.512
                          System time (sec):        5.843
                         Elapsed time (sec):      970.404
  
                   Maximum memory used (kb):      255248.
                   Average memory used (kb):           0.
  
                          Minor page faults:       150081
                          Major page faults:           41
                 Voluntary context switches:         4340
