Distance=1.550
 running on   16 total cores
 distrk:  each k-point on    8 cores,    2 groups
 distr:  one band on    4 cores,    2 groups
 using from now: INCAR     
 vasp.5.4.4.18Apr17-6-g9f103f2a35 (build Nov 27 2019 20:08:17) complex          
  
 POSCAR found type information on POSCAR  Ti
 POSCAR found :  1 types and      54 ions
 scaLAPACK will be used

 ----------------------------------------------------------------------------- 
|                                                                             |
|           W    W    AA    RRRRR   N    N  II  N    N   GGGG   !!!           |
|           W    W   A  A   R    R  NN   N  II  NN   N  G    G  !!!           |
|           W    W  A    A  R    R  N N  N  II  N N  N  G       !!!           |
|           W WW W  AAAAAA  RRRRR   N  N N  II  N  N N  G  GGG   !            |
|           WW  WW  A    A  R   R   N   NN  II  N   NN  G    G                |
|           W    W  A    A  R    R  N    N  II  N    N   GGGG   !!!           |
|                                                                             |
|      You have enabled k-point parallelism (KPAR>1).                         |
|      This developmental code was originally  written by Paul Kent at ORNL,  |
|      and carefully double checked in Vienna.                                |
|      GW as well as linear response parallelism added by Martijn Marsman     |
|      and Georg Kresse.                                                      |
|      Carefully verify results versus KPAR=1.                                |
|      Report problems to Paul Kent and Vienna.                               |
|                                                                             |
 ----------------------------------------------------------------------------- 

 LDA part: xc-table for Pade appr. of Perdew
 POSCAR found type information on POSCAR  Ti
 POSCAR found :  1 types and      54 ions
 POSCAR, INCAR and KPOINTS ok, starting setup
 FFT: planning ...
 WAVECAR not read
 entering main loop
       N       E                     dE             d eps       ncg     rms          rms(c)
DAV:   1     0.993370928767E+03    0.99337E+03   -0.62151E+04  1904   0.116E+03
DAV:   2    -0.280035085060E+03   -0.12734E+04   -0.12342E+04  1904   0.257E+02
DAV:   3    -0.468651464856E+03   -0.18862E+03   -0.17962E+03  2984   0.885E+01
DAV:   4    -0.485208905117E+03   -0.16557E+02   -0.15721E+02  3072   0.272E+01
DAV:   5    -0.486222468699E+03   -0.10136E+01   -0.96475E+00  3032   0.537E+00    0.858E+01
DAV:   6    -0.923958759649E+03   -0.43774E+03   -0.53427E+03  3768   0.108E+02    0.127E+02
DAV:   7    -0.434647476922E+03    0.48931E+03   -0.69112E+03  3408   0.157E+02    0.478E+01
DAV:   8    -0.407008491680E+03    0.27639E+02   -0.10377E+03  3104   0.899E+01    0.319E+01
DAV:   9    -0.415286771116E+03   -0.82783E+01   -0.18895E+02  3136   0.264E+01    0.288E+01
DAV:  10    -0.417698830551E+03   -0.24121E+01   -0.17882E+01  3160   0.751E+00    0.310E+01
DAV:  11    -0.417308063552E+03    0.39077E+00   -0.17024E+00  3080   0.176E+00    0.305E+01
DAV:  12    -0.414205114918E+03    0.31029E+01   -0.32038E+00  3016   0.513E+00    0.273E+01
DAV:  13    -0.404731587983E+03    0.94735E+01   -0.11582E+01  2408   0.110E+01    0.186E+01
DAV:  14    -0.402438332202E+03    0.22933E+01   -0.11263E+01  2944   0.941E+00    0.135E+01
DAV:  15    -0.402321612925E+03    0.11672E+00   -0.39372E-01  2920   0.145E+00    0.133E+01
DAV:  16    -0.402039297589E+03    0.28232E+00   -0.15293E-01  2720   0.109E+00    0.118E+01
DAV:  17    -0.400476702472E+03    0.15626E+01   -0.61507E+00  3080   0.490E+00    0.295E+00
DAV:  18    -0.400557336082E+03   -0.80634E-01   -0.49922E-01  2864   0.175E+00    0.291E+00
DAV:  19    -0.400562529346E+03   -0.51933E-02   -0.29157E-02  3208   0.248E-01    0.294E+00
DAV:  20    -0.400501677908E+03    0.60851E-01   -0.13038E-02  2848   0.285E-01    0.277E+00
DAV:  21    -0.400337476292E+03    0.16420E+00   -0.26325E-01  2928   0.807E-01    0.345E+00
DAV:  22    -0.400285450981E+03    0.52025E-01   -0.16161E-01  2952   0.615E-01    0.411E+00
DAV:  23    -0.400262238439E+03    0.23213E-01   -0.88249E-02  2536   0.779E-01    0.271E+00
DAV:  24    -0.400259838835E+03    0.23996E-02   -0.64938E-02  2944   0.699E-01    0.189E+00
DAV:  25    -0.400264300545E+03   -0.44617E-02   -0.36121E-02  2568   0.593E-01    0.181E+00
DAV:  26    -0.400259863866E+03    0.44367E-02   -0.29163E-02  3064   0.373E-01    0.185E+00
DAV:  27    -0.400249763160E+03    0.10101E-01   -0.17776E-02  2888   0.183E-01    0.160E+00
DAV:  28    -0.400244065087E+03    0.56981E-02   -0.29318E-02  2776   0.353E-01    0.123E+00
DAV:  29    -0.400242283452E+03    0.17816E-02   -0.68746E-03  2776   0.240E-01    0.915E-01
DAV:  30    -0.400239211082E+03    0.30724E-02   -0.13118E-02  3064   0.217E-01    0.465E-01
DAV:  31    -0.400239285826E+03   -0.74743E-04   -0.24837E-03  3152   0.111E-01    0.216E-01
DAV:  32    -0.400239304646E+03   -0.18820E-04   -0.16340E-04  3032   0.311E-02    0.125E-01
DAV:  33    -0.400239286202E+03    0.18443E-04   -0.18983E-04  2512   0.334E-02    0.473E-02
DAV:  34    -0.400239264237E+03    0.21966E-04   -0.13003E-04  3032   0.242E-02    0.177E-02
DAV:  35    -0.400239261260E+03    0.29770E-05   -0.74378E-06  1456   0.970E-03
   1 F= -.40023926E+03 E0= -.40018473E+03  d E =-.109069E+00
 running on   16 total cores
 distrk:  each k-point on    8 cores,    2 groups
 distr:  one band on    4 cores,    2 groups
 using from now: INCAR     
 vasp.5.4.4.18Apr17-6-g9f103f2a35 (build Nov 27 2019 20:08:17) complex          
  
 POSCAR found type information on POSCAR  Ti
 POSCAR found :  1 types and      36 ions
 scaLAPACK will be used

 ----------------------------------------------------------------------------- 
|                                                                             |
|           W    W    AA    RRRRR   N    N  II  N    N   GGGG   !!!           |
|           W    W   A  A   R    R  NN   N  II  NN   N  G    G  !!!           |
|           W    W  A    A  R    R  N N  N  II  N N  N  G       !!!           |
|           W WW W  AAAAAA  RRRRR   N  N N  II  N  N N  G  GGG   !            |
|           WW  WW  A    A  R   R   N   NN  II  N   NN  G    G                |
|           W    W  A    A  R    R  N    N  II  N    N   GGGG   !!!           |
|                                                                             |
|      You have enabled k-point parallelism (KPAR>1).                         |
|      This developmental code was originally  written by Paul Kent at ORNL,  |
|      and carefully double checked in Vienna.                                |
|      GW as well as linear response parallelism added by Martijn Marsman     |
|      and Georg Kresse.                                                      |
|      Carefully verify results versus KPAR=1.                                |
|      Report problems to Paul Kent and Vienna.                               |
|                                                                             |
 ----------------------------------------------------------------------------- 

 LDA part: xc-table for Pade appr. of Perdew
 POSCAR found type information on POSCAR  Ti
 POSCAR found :  1 types and      36 ions
 POSCAR, INCAR and KPOINTS ok, starting setup
 FFT: planning ...
 WAVECAR not read
 WARNING: random wavefunctions but no delay for mixing, default for NELMDL
 entering main loop
       N       E                     dE             d eps       ncg     rms          rms(c)
DAV:   1     0.725026024776E+03    0.72503E+03   -0.40583E+04  1288   0.107E+03
DAV:   2    -0.187405255792E+03   -0.91243E+03   -0.87622E+03  1296   0.243E+02
DAV:   3    -0.320378030630E+03   -0.13297E+03   -0.12437E+03  1952   0.861E+01
DAV:   4    -0.330605042085E+03   -0.10227E+02   -0.95331E+01  1896   0.281E+01
DAV:   5    -0.331138508509E+03   -0.53347E+00   -0.52330E+00  2040   0.592E+00    0.782E+01
DAV:   6    -0.499549711140E+03   -0.16841E+03   -0.28706E+03  2424   0.987E+01    0.996E+01
DAV:   7    -0.286594094144E+03    0.21296E+03   -0.39023E+03  2236   0.176E+02    0.340E+01
DAV:   8    -0.285177404454E+03    0.14167E+01   -0.56778E+02  1896   0.779E+01    0.385E+01
DAV:   9    -0.268499614922E+03    0.16678E+02   -0.89030E+01  2012   0.309E+01    0.289E+01
DAV:  10    -0.266540992983E+03    0.19586E+01   -0.66463E+00  2088   0.681E+00    0.269E+01
DAV:  11    -0.265096913676E+03    0.14441E+01   -0.99588E-01  2140   0.279E+00    0.249E+01
DAV:  12    -0.261383890848E+03    0.37130E+01   -0.11800E+01  1908   0.105E+01    0.192E+01
DAV:  13    -0.256325348994E+03    0.50585E+01   -0.25195E+01  2136   0.134E+01    0.682E+00
DAV:  14    -0.256067979719E+03    0.25737E+00   -0.23554E+00  2072   0.415E+00    0.469E+00
DAV:  15    -0.256210550308E+03   -0.14257E+00   -0.96941E-01  2016   0.263E+00    0.525E+00
DAV:  16    -0.255939776956E+03    0.27077E+00   -0.25866E+00  2088   0.388E+00    0.323E+00
DAV:  17    -0.255796845605E+03    0.14293E+00   -0.54061E-01  2000   0.232E+00    0.133E+00
DAV:  18    -0.255795508936E+03    0.13367E-02   -0.34018E-01  2048   0.182E+00    0.109E+00
DAV:  19    -0.255824332866E+03   -0.28824E-01   -0.45931E-01  1944   0.189E+00    0.167E+00
DAV:  20    -0.255802270213E+03    0.22063E-01   -0.12134E-01  2008   0.966E-01    0.713E-01
DAV:  21    -0.255794916101E+03    0.73541E-02   -0.36275E-02  1872   0.660E-01    0.205E-01
DAV:  22    -0.255795382966E+03   -0.46686E-03   -0.33452E-03  2112   0.156E-01    0.165E-01
DAV:  23    -0.255795786694E+03   -0.40373E-03   -0.16337E-03  1904   0.105E-01    0.138E-01
DAV:  24    -0.255796010188E+03   -0.22349E-03   -0.33550E-03  2032   0.168E-01    0.103E-01
DAV:  25    -0.255796301834E+03   -0.29165E-03   -0.10044E-03  1960   0.963E-02    0.350E-02
DAV:  26    -0.255796513644E+03   -0.21181E-03   -0.71052E-05  1784   0.259E-02    0.240E-02
DAV:  27    -0.255796868146E+03   -0.35450E-03   -0.96528E-05  1960   0.197E-02    0.124E-02
DAV:  28    -0.255796937628E+03   -0.69482E-04   -0.15201E-05  1192   0.111E-02    0.573E-03
DAV:  29    -0.255797033952E+03   -0.96324E-04   -0.23072E-05  1376   0.115E-02    0.121E-02
DAV:  30    -0.255797066622E+03   -0.32670E-04   -0.78087E-06   928   0.104E-02    0.518E-03
DAV:  31    -0.255797069951E+03   -0.33285E-05   -0.29995E-06   896   0.369E-03
   1 F= -.25579707E+03 E0= -.25572829E+03  d E =-.137559E+00
 running on   16 total cores
 distrk:  each k-point on    8 cores,    2 groups
 distr:  one band on    4 cores,    2 groups
 using from now: INCAR     
 vasp.5.4.4.18Apr17-6-g9f103f2a35 (build Nov 27 2019 20:08:17) complex          
  
 POSCAR found type information on POSCAR  Ti
 POSCAR found :  1 types and      90 ions
 scaLAPACK will be used

 ----------------------------------------------------------------------------- 
|                                                                             |
|           W    W    AA    RRRRR   N    N  II  N    N   GGGG   !!!           |
|           W    W   A  A   R    R  NN   N  II  NN   N  G    G  !!!           |
|           W    W  A    A  R    R  N N  N  II  N N  N  G       !!!           |
|           W WW W  AAAAAA  RRRRR   N  N N  II  N  N N  G  GGG   !            |
|           WW  WW  A    A  R   R   N   NN  II  N   NN  G    G                |
|           W    W  A    A  R    R  N    N  II  N    N   GGGG   !!!           |
|                                                                             |
|      You have enabled k-point parallelism (KPAR>1).                         |
|      This developmental code was originally  written by Paul Kent at ORNL,  |
|      and carefully double checked in Vienna.                                |
|      GW as well as linear response parallelism added by Martijn Marsman     |
|      and Georg Kresse.                                                      |
|      Carefully verify results versus KPAR=1.                                |
|      Report problems to Paul Kent and Vienna.                               |
|                                                                             |
 ----------------------------------------------------------------------------- 

 LDA part: xc-table for Pade appr. of Perdew
 POSCAR found type information on POSCAR  Ti
 POSCAR found :  1 types and      90 ions
 POSCAR, INCAR and KPOINTS ok, starting setup
 FFT: planning ...
 WAVECAR not read
 WARNING: random wavefunctions but no delay for mixing, default for NELMDL
 entering main loop
       N       E                     dE             d eps       ncg     rms          rms(c)
DAV:   1     0.157429088246E+04    0.15743E+04   -0.10354E+05  3164   0.125E+03
DAV:   2    -0.464509377910E+03   -0.20388E+04   -0.19810E+04  3164   0.279E+02
DAV:   3    -0.766442754924E+03   -0.30193E+03   -0.28161E+03  4600   0.981E+01
DAV:   4    -0.791082522662E+03   -0.24640E+02   -0.23180E+02  4616   0.293E+01
DAV:   5    -0.792069359536E+03   -0.98684E+00   -0.96060E+00  4512   0.473E+00    0.119E+02
DAV:   6    -0.214496913461E+04   -0.13529E+04   -0.13320E+04  6252   0.189E+02    0.166E+02
DAV:   7    -0.100432436845E+04    0.11406E+04   -0.18729E+04  5812   0.184E+02    0.985E+01
DAV:   8    -0.698472214408E+03    0.30585E+03   -0.36265E+03  4826   0.151E+02    0.643E+01
DAV:   9    -0.717020052957E+03   -0.18548E+02   -0.13183E+03  5424   0.742E+01    0.542E+01
DAV:  10    -0.706752172950E+03    0.10268E+02   -0.27238E+02  5136   0.312E+01    0.433E+01
DAV:  11    -0.703981298647E+03    0.27709E+01   -0.23259E+01  4992   0.961E+00    0.418E+01
DAV:  12    -0.706455691796E+03   -0.24744E+01   -0.25662E+00  5144   0.286E+00    0.442E+01
DAV:  13    -0.703567421216E+03    0.28883E+01   -0.16537E+00  5032   0.250E+00    0.413E+01
DAV:  14    -0.688077361379E+03    0.15490E+02   -0.22624E+01  3984   0.122E+01    0.237E+01
DAV:  15    -0.682409126072E+03    0.56682E+01   -0.11345E+01  4704   0.798E+00    0.161E+01
DAV:  16    -0.682156073000E+03    0.25305E+00   -0.90908E-01  4448   0.213E+00    0.159E+01
DAV:  17    -0.682395250752E+03   -0.23918E+00   -0.29765E-01  5056   0.100E+00    0.166E+01
DAV:  18    -0.682433339177E+03   -0.38088E-01   -0.36866E-01  5024   0.108E+00    0.162E+01
DAV:  19    -0.680550357413E+03    0.18830E+01   -0.40966E+00  4712   0.448E+00    0.113E+01
DAV:  20    -0.678004970505E+03    0.25454E+01   -0.11359E+01  4320   0.808E+00    0.917E+00
DAV:  21    -0.677918091504E+03    0.86879E-01   -0.11482E+00  4792   0.234E+00    0.799E+00
DAV:  22    -0.677854235713E+03    0.63856E-01   -0.20176E-01  4696   0.102E+00    0.691E+00
DAV:  23    -0.677828618389E+03    0.25617E-01   -0.18846E-01  4760   0.962E-01    0.575E+00
DAV:  24    -0.677792811340E+03    0.35807E-01   -0.26668E-01  4864   0.105E+00    0.408E+00
DAV:  25    -0.677752736972E+03    0.40074E-01   -0.20845E-01  4816   0.957E-01    0.284E+00
DAV:  26    -0.677730709750E+03    0.22027E-01   -0.98486E-02  4776   0.628E-01    0.140E+00
DAV:  27    -0.677731018362E+03   -0.30861E-03   -0.22371E-02  4720   0.362E-01    0.854E-01
DAV:  28    -0.677730068711E+03    0.94965E-03   -0.99915E-03  4680   0.186E-01    0.713E-01
DAV:  29    -0.677730208906E+03   -0.14020E-03   -0.21991E-02  4888   0.305E-01    0.754E-01
DAV:  30    -0.677728584371E+03    0.16245E-02   -0.12758E-02  4816   0.229E-01    0.507E-01
DAV:  31    -0.677727029096E+03    0.15553E-02   -0.27630E-03  4936   0.120E-01    0.318E-01
DAV:  32    -0.677727078275E+03   -0.49178E-04   -0.11053E-03  4760   0.714E-02    0.307E-01
DAV:  33    -0.677726946145E+03    0.13213E-03   -0.30290E-04  4512   0.393E-02    0.238E-01
DAV:  34    -0.677726884762E+03    0.61383E-04   -0.21710E-04  4824   0.301E-02    0.162E-01
DAV:  35    -0.677726703460E+03    0.18130E-03   -0.35798E-04  5560   0.407E-02    0.879E-02
DAV:  36    -0.677726615625E+03    0.87835E-04   -0.17204E-04  3864   0.326E-02    0.456E-02
DAV:  37    -0.677726601254E+03    0.14371E-04   -0.47561E-05  4296   0.129E-02    0.355E-02
DAV:  38    -0.677726600436E+03    0.81835E-06   -0.24200E-05  3136   0.111E-02
   1 F= -.67772660E+03 E0= -.67763320E+03  d E =-.186807E+00
Distance=1.600
 running on   16 total cores
 distrk:  each k-point on    8 cores,    2 groups
 distr:  one band on    4 cores,    2 groups
 using from now: INCAR     
 vasp.5.4.4.18Apr17-6-g9f103f2a35 (build Nov 27 2019 20:08:17) complex          
  
 POSCAR found type information on POSCAR  Ti
 POSCAR found :  1 types and      54 ions
 scaLAPACK will be used

 ----------------------------------------------------------------------------- 
|                                                                             |
|           W    W    AA    RRRRR   N    N  II  N    N   GGGG   !!!           |
|           W    W   A  A   R    R  NN   N  II  NN   N  G    G  !!!           |
|           W    W  A    A  R    R  N N  N  II  N N  N  G       !!!           |
|           W WW W  AAAAAA  RRRRR   N  N N  II  N  N N  G  GGG   !            |
|           WW  WW  A    A  R   R   N   NN  II  N   NN  G    G                |
|           W    W  A    A  R    R  N    N  II  N    N   GGGG   !!!           |
|                                                                             |
|      You have enabled k-point parallelism (KPAR>1).                         |
|      This developmental code was originally  written by Paul Kent at ORNL,  |
|      and carefully double checked in Vienna.                                |
|      GW as well as linear response parallelism added by Martijn Marsman     |
|      and Georg Kresse.                                                      |
|      Carefully verify results versus KPAR=1.                                |
|      Report problems to Paul Kent and Vienna.                               |
|                                                                             |
 ----------------------------------------------------------------------------- 

 LDA part: xc-table for Pade appr. of Perdew
 POSCAR found type information on POSCAR  Ti
 POSCAR found :  1 types and      54 ions
 POSCAR, INCAR and KPOINTS ok, starting setup
 FFT: planning ...
 WAVECAR not read
 entering main loop
       N       E                     dE             d eps       ncg     rms          rms(c)
DAV:   1     0.990383108195E+03    0.99038E+03   -0.61949E+04  1904   0.116E+03
DAV:   2    -0.281142110673E+03   -0.12715E+04   -0.12329E+04  1904   0.257E+02
DAV:   3    -0.468491653561E+03   -0.18735E+03   -0.17802E+03  2992   0.881E+01
DAV:   4    -0.485151884479E+03   -0.16660E+02   -0.15811E+02  3080   0.274E+01
DAV:   5    -0.486210193977E+03   -0.10583E+01   -0.99856E+00  3008   0.543E+00    0.858E+01
DAV:   6    -0.924090261355E+03   -0.43788E+03   -0.53341E+03  3768   0.108E+02    0.127E+02
DAV:   7    -0.436300769711E+03    0.48779E+03   -0.69674E+03  3424   0.157E+02    0.477E+01
DAV:   8    -0.407445028063E+03    0.28856E+02   -0.10295E+03  3080   0.903E+01    0.322E+01
DAV:   9    -0.415410762594E+03   -0.79657E+01   -0.19421E+02  3160   0.272E+01    0.290E+01
DAV:  10    -0.417561020937E+03   -0.21503E+01   -0.18289E+01  3160   0.765E+00    0.309E+01
DAV:  11    -0.417487138649E+03    0.73882E-01   -0.15538E+00  3096   0.157E+00    0.307E+01
DAV:  12    -0.416771652386E+03    0.71549E+00   -0.28100E+00  3064   0.418E+00    0.303E+01
DAV:  13    -0.412328899111E+03    0.44428E+01   -0.18415E+00  2296   0.444E+00    0.289E+01
DAV:  14    -0.408493914044E+03    0.38350E+01   -0.32774E+01  2944   0.151E+01    0.260E+01
DAV:  15    -0.408315279143E+03    0.17863E+00   -0.11924E+00  2984   0.276E+00    0.259E+01
DAV:  16    -0.408307762487E+03    0.75167E-02   -0.65896E-02  3096   0.469E-01    0.258E+01
DAV:  17    -0.404757107089E+03    0.35507E+01   -0.30565E+00  3080   0.355E+00    0.184E+01
DAV:  18    -0.402978933382E+03    0.17782E+01   -0.12584E+00  2728   0.281E+00    0.133E+01
DAV:  19    -0.402680585896E+03    0.29835E+00   -0.28319E-01  2536   0.159E+00    0.127E+01
DAV:  20    -0.401521293791E+03    0.11593E+01   -0.79883E-01  2624   0.241E+00    0.893E+00
DAV:  21    -0.400860800439E+03    0.66049E+00   -0.66228E-01  3032   0.195E+00    0.615E+00
DAV:  22    -0.400865234361E+03   -0.44339E-02   -0.47090E-02  2568   0.552E-01    0.614E+00
DAV:  23    -0.400904039627E+03   -0.38805E-01   -0.12502E-02  3200   0.309E-01    0.657E+00
DAV:  24    -0.400876319795E+03    0.27720E-01   -0.19974E-01  2560   0.784E-01    0.583E+00
DAV:  25    -0.400596535119E+03    0.27978E+00   -0.17148E-01  3184   0.917E-01    0.454E+00
DAV:  26    -0.400423072994E+03    0.17346E+00   -0.24153E-01  3080   0.854E-01    0.330E+00
DAV:  27    -0.400287009765E+03    0.13606E+00   -0.21850E-01  3024   0.746E-01    0.193E+00
DAV:  28    -0.400272433829E+03    0.14576E-01   -0.34982E-02  3104   0.416E-01    0.158E+00
DAV:  29    -0.400261285760E+03    0.11148E-01   -0.12813E-02  2840   0.185E-01    0.138E+00
DAV:  30    -0.400249516572E+03    0.11769E-01   -0.19650E-02  3144   0.272E-01    0.105E+00
DAV:  31    -0.400245916221E+03    0.36004E-02   -0.39633E-03  2784   0.148E-01    0.942E-01
DAV:  32    -0.400242166957E+03    0.37493E-02   -0.66143E-03  3080   0.160E-01    0.757E-01
DAV:  33    -0.400241466311E+03    0.70065E-03   -0.71786E-04  2656   0.698E-02    0.694E-01
DAV:  34    -0.400240354586E+03    0.11117E-02   -0.14704E-03  2760   0.714E-02    0.575E-01
DAV:  35    -0.400239867428E+03    0.48716E-03   -0.93522E-04  2904   0.574E-02    0.484E-01
DAV:  36    -0.400239835774E+03    0.31654E-04   -0.17976E-04  3216   0.223E-02    0.460E-01
DAV:  37    -0.400239615633E+03    0.22014E-03   -0.32482E-04  2680   0.411E-02    0.372E-01
DAV:  38    -0.400239518488E+03    0.97145E-04   -0.95043E-05  2968   0.168E-02    0.332E-01
DAV:  39    -0.400239410937E+03    0.10755E-03   -0.29998E-05  2256   0.108E-02    0.280E-01
DAV:  40    -0.400239189816E+03    0.22112E-03   -0.15961E-04  2968   0.224E-02    0.189E-01
DAV:  41    -0.400239101689E+03    0.88128E-04   -0.83802E-05  3032   0.158E-02    0.134E-01
DAV:  42    -0.400239053970E+03    0.47719E-04   -0.29091E-05  2152   0.104E-02    0.974E-02
DAV:  43    -0.400239002725E+03    0.51244E-04   -0.82367E-05  2864   0.128E-02    0.502E-02
DAV:  44    -0.400238988648E+03    0.14077E-04   -0.20410E-05  1952   0.902E-03    0.248E-02
DAV:  45    -0.400238984667E+03    0.39819E-05   -0.95534E-06  1576   0.616E-03
   1 F= -.40023898E+03 E0= -.40018444E+03  d E =-.109080E+00
 running on   16 total cores
 distrk:  each k-point on    8 cores,    2 groups
 distr:  one band on    4 cores,    2 groups
 using from now: INCAR     
 vasp.5.4.4.18Apr17-6-g9f103f2a35 (build Nov 27 2019 20:08:17) complex          
  
 POSCAR found type information on POSCAR  Ti
 POSCAR found :  1 types and      36 ions
 scaLAPACK will be used

 ----------------------------------------------------------------------------- 
|                                                                             |
|           W    W    AA    RRRRR   N    N  II  N    N   GGGG   !!!           |
|           W    W   A  A   R    R  NN   N  II  NN   N  G    G  !!!           |
|           W    W  A    A  R    R  N N  N  II  N N  N  G       !!!           |
|           W WW W  AAAAAA  RRRRR   N  N N  II  N  N N  G  GGG   !            |
|           WW  WW  A    A  R   R   N   NN  II  N   NN  G    G                |
|           W    W  A    A  R    R  N    N  II  N    N   GGGG   !!!           |
|                                                                             |
|      You have enabled k-point parallelism (KPAR>1).                         |
|      This developmental code was originally  written by Paul Kent at ORNL,  |
|      and carefully double checked in Vienna.                                |
|      GW as well as linear response parallelism added by Martijn Marsman     |
|      and Georg Kresse.                                                      |
|      Carefully verify results versus KPAR=1.                                |
|      Report problems to Paul Kent and Vienna.                               |
|                                                                             |
 ----------------------------------------------------------------------------- 

 LDA part: xc-table for Pade appr. of Perdew
 POSCAR found type information on POSCAR  Ti
 POSCAR found :  1 types and      36 ions
 POSCAR, INCAR and KPOINTS ok, starting setup
 FFT: planning ...
 WAVECAR not read
 WARNING: random wavefunctions but no delay for mixing, default for NELMDL
 entering main loop
       N       E                     dE             d eps       ncg     rms          rms(c)
DAV:   1     0.727385862480E+03    0.72739E+03   -0.40626E+04  1288   0.107E+03
DAV:   2    -0.187074298083E+03   -0.91446E+03   -0.87933E+03  1288   0.243E+02
DAV:   3    -0.320322823086E+03   -0.13325E+03   -0.12474E+03  1944   0.861E+01
DAV:   4    -0.330582346140E+03   -0.10260E+02   -0.95472E+01  1904   0.280E+01
DAV:   5    -0.331135767014E+03   -0.55342E+00   -0.54180E+00  2040   0.597E+00    0.781E+01
DAV:   6    -0.499800089367E+03   -0.16866E+03   -0.28784E+03  2440   0.988E+01    0.997E+01
DAV:   7    -0.286560943029E+03    0.21324E+03   -0.39205E+03  2244   0.176E+02    0.342E+01
DAV:   8    -0.285285919884E+03    0.12750E+01   -0.57550E+02  1900   0.783E+01    0.385E+01
DAV:   9    -0.268627857658E+03    0.16658E+02   -0.85898E+01  2028   0.304E+01    0.290E+01
DAV:  10    -0.267011628267E+03    0.16162E+01   -0.61110E+00  2064   0.660E+00    0.275E+01
DAV:  11    -0.265964284586E+03    0.10473E+01   -0.82476E-01  2144   0.224E+00    0.260E+01
DAV:  12    -0.263422914428E+03    0.25414E+01   -0.44342E+00  1952   0.640E+00    0.225E+01
DAV:  13    -0.256336850940E+03    0.70861E+01   -0.32048E+01  2104   0.163E+01    0.743E+00
DAV:  14    -0.256042578153E+03    0.29427E+00   -0.30589E+00  2080   0.436E+00    0.497E+00
DAV:  15    -0.256155988853E+03   -0.11341E+00   -0.62789E-01  2064   0.223E+00    0.523E+00
DAV:  16    -0.255958711632E+03    0.19728E+00   -0.27353E+00  2112   0.411E+00    0.350E+00
DAV:  17    -0.255795876223E+03    0.16284E+00   -0.83884E-01  2100   0.285E+00    0.133E+00
DAV:  18    -0.255785446459E+03    0.10430E-01   -0.13781E-01  1920   0.107E+00    0.784E-01
DAV:  19    -0.255807501810E+03   -0.22055E-01   -0.16564E-01  1924   0.126E+00    0.114E+00
DAV:  20    -0.255803294942E+03    0.42069E-02   -0.18232E-01  1976   0.111E+00    0.799E-01
DAV:  21    -0.255794278779E+03    0.90162E-02   -0.39456E-02  1944   0.672E-01    0.163E-01
DAV:  22    -0.255796357846E+03   -0.20791E-02   -0.63436E-03  2184   0.199E-01    0.251E-01
DAV:  23    -0.255796428592E+03   -0.70746E-04   -0.65152E-03  2008   0.231E-01    0.130E-01
DAV:  24    -0.255796290598E+03    0.13799E-03   -0.67192E-04  1920   0.847E-02    0.629E-02
DAV:  25    -0.255796655916E+03   -0.36532E-03   -0.84423E-04  2080   0.639E-02    0.648E-02
DAV:  26    -0.255796987370E+03   -0.33145E-03   -0.43300E-04  1960   0.583E-02    0.235E-02
DAV:  27    -0.255797147347E+03   -0.15998E-03   -0.46433E-05  1728   0.195E-02    0.110E-02
DAV:  28    -0.255797387128E+03   -0.23978E-03   -0.17800E-05  1392   0.906E-03    0.939E-03
DAV:  29    -0.255797431838E+03   -0.44710E-04   -0.78623E-06   936   0.105E-02    0.516E-03
DAV:  30    -0.255797452005E+03   -0.20168E-04   -0.48499E-06   896   0.443E-03    0.400E-03
DAV:  31    -0.255797465637E+03   -0.13632E-04   -0.21915E-06   896   0.552E-03    0.180E-03
DAV:  32    -0.255797468095E+03   -0.24578E-05   -0.61921E-07   880   0.193E-03
   1 F= -.25579747E+03 E0= -.25572869E+03  d E =-.137553E+00
 running on   16 total cores
 distrk:  each k-point on    8 cores,    2 groups
 distr:  one band on    4 cores,    2 groups
 using from now: INCAR     
 vasp.5.4.4.18Apr17-6-g9f103f2a35 (build Nov 27 2019 20:08:17) complex          
  
 POSCAR found type information on POSCAR  Ti
 POSCAR found :  1 types and      90 ions
 scaLAPACK will be used

 ----------------------------------------------------------------------------- 
|                                                                             |
|           W    W    AA    RRRRR   N    N  II  N    N   GGGG   !!!           |
|           W    W   A  A   R    R  NN   N  II  NN   N  G    G  !!!           |
|           W    W  A    A  R    R  N N  N  II  N N  N  G       !!!           |
|           W WW W  AAAAAA  RRRRR   N  N N  II  N  N N  G  GGG   !            |
|           WW  WW  A    A  R   R   N   NN  II  N   NN  G    G                |
|           W    W  A    A  R    R  N    N  II  N    N   GGGG   !!!           |
|                                                                             |
|      You have enabled k-point parallelism (KPAR>1).                         |
|      This developmental code was originally  written by Paul Kent at ORNL,  |
|      and carefully double checked in Vienna.                                |
|      GW as well as linear response parallelism added by Martijn Marsman     |
|      and Georg Kresse.                                                      |
|      Carefully verify results versus KPAR=1.                                |
|      Report problems to Paul Kent and Vienna.                               |
|                                                                             |
 ----------------------------------------------------------------------------- 

 LDA part: xc-table for Pade appr. of Perdew
 POSCAR found type information on POSCAR  Ti
 POSCAR found :  1 types and      90 ions
 POSCAR, INCAR and KPOINTS ok, starting setup
 FFT: planning ...
 WAVECAR not read
 WARNING: random wavefunctions but no delay for mixing, default for NELMDL
 entering main loop
       N       E                     dE             d eps       ncg     rms          rms(c)
DAV:   1     0.156939606897E+04    0.15694E+04   -0.10351E+05  3164   0.125E+03
DAV:   2    -0.463627284562E+03   -0.20330E+04   -0.19756E+04  3164   0.279E+02
DAV:   3    -0.765238186598E+03   -0.30161E+03   -0.28109E+03  4624   0.978E+01
DAV:   4    -0.790270044563E+03   -0.25032E+02   -0.23519E+02  4704   0.290E+01
DAV:   5    -0.791225432952E+03   -0.95539E+00   -0.93091E+00  4560   0.467E+00    0.119E+02
DAV:   6    -0.206453108999E+04   -0.12733E+04   -0.12428E+04  6284   0.181E+02    0.160E+02
DAV:   7    -0.102281438509E+04    0.10417E+04   -0.18672E+04  5812   0.182E+02    0.979E+01
DAV:   8    -0.697446321455E+03    0.32537E+03   -0.35678E+03  4938   0.148E+02    0.640E+01
DAV:   9    -0.715436883429E+03   -0.17991E+02   -0.12561E+03  5392   0.730E+01    0.537E+01
DAV:  10    -0.706893845181E+03    0.85430E+01   -0.25676E+02  5080   0.300E+01    0.426E+01
DAV:  11    -0.705516708327E+03    0.13771E+01   -0.20568E+01  4936   0.882E+00    0.419E+01
DAV:  12    -0.707607952150E+03   -0.20912E+01   -0.21191E+00  5104   0.240E+00    0.439E+01
DAV:  13    -0.706304426953E+03    0.13035E+01   -0.95811E-01  5136   0.176E+00    0.426E+01
DAV:  14    -0.693924025039E+03    0.12380E+02   -0.16399E+01  4152   0.103E+01    0.284E+01
DAV:  15    -0.685651483296E+03    0.82725E+01   -0.11791E+01  4304   0.822E+00    0.187E+01
DAV:  16    -0.685351459868E+03    0.30002E+00   -0.97658E-01  4608   0.208E+00    0.186E+01
DAV:  17    -0.685210804562E+03    0.14066E+00   -0.12180E-01  5008   0.584E-01    0.186E+01
DAV:  18    -0.686167830957E+03   -0.95703E+00   -0.58436E-01  5000   0.146E+00    0.193E+01
DAV:  19    -0.686343067313E+03   -0.17524E+00   -0.87065E-02  4448   0.691E-01    0.193E+01
DAV:  20    -0.685892208356E+03    0.45086E+00   -0.91032E-02  4776   0.695E-01    0.186E+01
DAV:  21    -0.680857958145E+03    0.50343E+01   -0.12562E+01  4392   0.867E+00    0.156E+01
DAV:  22    -0.680218081668E+03    0.63988E+00   -0.34321E+00  4824   0.403E+00    0.151E+01
DAV:  23    -0.679891391048E+03    0.32669E+00   -0.47406E-01  4760   0.149E+00    0.133E+01
DAV:  24    -0.679661548575E+03    0.22984E+00   -0.37133E-01  4888   0.123E+00    0.108E+01
DAV:  25    -0.679294891879E+03    0.36666E+00   -0.93884E-01  4312   0.222E+00    0.581E+00
DAV:  26    -0.679180063149E+03    0.11483E+00   -0.52237E-01  4688   0.155E+00    0.234E+00
DAV:  27    -0.679183348247E+03   -0.32851E-02   -0.16908E-01  4872   0.817E-01    0.205E+00
DAV:  28    -0.679183109444E+03    0.23880E-03   -0.77228E-02  4640   0.619E-01    0.241E+00
DAV:  29    -0.679170915835E+03    0.12194E-01   -0.14968E-01  4128   0.962E-01    0.245E+00
DAV:  30    -0.679173636769E+03   -0.27209E-02   -0.48735E-02  4592   0.541E-01    0.188E+00
DAV:  31    -0.679158975993E+03    0.14661E-01   -0.28067E-02  4024   0.397E-01    0.117E+00
DAV:  32    -0.679154090487E+03    0.48855E-02   -0.91551E-03  5016   0.178E-01    0.710E-01
DAV:  33    -0.679153599770E+03    0.49072E-03   -0.34518E-03  4768   0.123E-01    0.540E-01
DAV:  34    -0.679152448169E+03    0.11516E-02   -0.16438E-03  4744   0.882E-02    0.441E-01
DAV:  35    -0.679150762617E+03    0.16856E-02   -0.18916E-03  4360   0.963E-02    0.305E-01
DAV:  36    -0.679149548518E+03    0.12141E-02   -0.26630E-03  4504   0.114E-01    0.134E-01
DAV:  37    -0.679149485458E+03    0.63060E-04   -0.65461E-04  4760   0.578E-02    0.126E-01
DAV:  38    -0.679149396293E+03    0.89165E-04   -0.22717E-04  4192   0.375E-02    0.708E-02
DAV:  39    -0.679149372642E+03    0.23651E-04   -0.11552E-04  4560   0.267E-02    0.171E-02
DAV:  40    -0.679149371828E+03    0.81340E-06   -0.25390E-05  3168   0.108E-02
   1 F= -.67914937E+03 E0= -.67905540E+03  d E =-.187944E+00
Distance=1.650
 running on   16 total cores
 distrk:  each k-point on    8 cores,    2 groups
 distr:  one band on    4 cores,    2 groups
 using from now: INCAR     
 vasp.5.4.4.18Apr17-6-g9f103f2a35 (build Nov 27 2019 20:08:17) complex          
  
 POSCAR found type information on POSCAR  Ti
 POSCAR found :  1 types and      54 ions
 scaLAPACK will be used

 ----------------------------------------------------------------------------- 
|                                                                             |
|           W    W    AA    RRRRR   N    N  II  N    N   GGGG   !!!           |
|           W    W   A  A   R    R  NN   N  II  NN   N  G    G  !!!           |
|           W    W  A    A  R    R  N N  N  II  N N  N  G       !!!           |
|           W WW W  AAAAAA  RRRRR   N  N N  II  N  N N  G  GGG   !            |
|           WW  WW  A    A  R   R   N   NN  II  N   NN  G    G                |
|           W    W  A    A  R    R  N    N  II  N    N   GGGG   !!!           |
|                                                                             |
|      You have enabled k-point parallelism (KPAR>1).                         |
|      This developmental code was originally  written by Paul Kent at ORNL,  |
|      and carefully double checked in Vienna.                                |
|      GW as well as linear response parallelism added by Martijn Marsman     |
|      and Georg Kresse.                                                      |
|      Carefully verify results versus KPAR=1.                                |
|      Report problems to Paul Kent and Vienna.                               |
|                                                                             |
 ----------------------------------------------------------------------------- 

 LDA part: xc-table for Pade appr. of Perdew
 POSCAR found type information on POSCAR  Ti
 POSCAR found :  1 types and      54 ions
 POSCAR, INCAR and KPOINTS ok, starting setup
 FFT: planning ...
 WAVECAR not read
 entering main loop
       N       E                     dE             d eps       ncg     rms          rms(c)
DAV:   1     0.993676972386E+03    0.99368E+03   -0.62048E+04  1904   0.116E+03
DAV:   2    -0.280756001753E+03   -0.12744E+04   -0.12354E+04  1904   0.256E+02
DAV:   3    -0.468468538050E+03   -0.18771E+03   -0.17827E+03  2984   0.881E+01
DAV:   4    -0.485147177754E+03   -0.16679E+02   -0.15818E+02  3032   0.274E+01
DAV:   5    -0.486219216611E+03   -0.10720E+01   -0.10164E+01  3072   0.560E+00    0.858E+01
DAV:   6    -0.924552366321E+03   -0.43833E+03   -0.53546E+03  3768   0.108E+02    0.128E+02
DAV:   7    -0.437478333862E+03    0.48707E+03   -0.70184E+03  3424   0.158E+02    0.482E+01
DAV:   8    -0.407969064936E+03    0.29509E+02   -0.10354E+03  3120   0.910E+01    0.324E+01
DAV:   9    -0.415632222109E+03   -0.76632E+01   -0.19366E+02  3144   0.272E+01    0.292E+01
DAV:  10    -0.417663671720E+03   -0.20314E+01   -0.18082E+01  3136   0.763E+00    0.310E+01
DAV:  11    -0.417566084903E+03    0.97587E-01   -0.16835E+00  3096   0.168E+00    0.308E+01
DAV:  12    -0.417185806153E+03    0.38028E+00   -0.25748E+00  3104   0.396E+00    0.306E+01
DAV:  13    -0.414514403633E+03    0.26714E+01   -0.13509E+00  2664   0.341E+00    0.303E+01
DAV:  14    -0.414946589211E+03   -0.43219E+00   -0.43800E+01  3056   0.165E+01    0.313E+01
DAV:  15    -0.414433391394E+03    0.51320E+00   -0.17388E+00  2944   0.361E+00    0.309E+01
DAV:  16    -0.414713941099E+03   -0.28055E+00   -0.16980E-01  3008   0.914E-01    0.310E+01
DAV:  17    -0.408318524288E+03    0.63954E+01   -0.47984E+00  3088   0.477E+00    0.215E+01
DAV:  18    -0.407267150676E+03    0.10514E+01   -0.65440E-01  2648   0.228E+00    0.195E+01
DAV:  19    -0.406989227325E+03    0.27792E+00   -0.73569E-02  3128   0.545E-01    0.194E+01
DAV:  20    -0.406880824305E+03    0.10840E+00   -0.50318E-03  3024   0.135E-01    0.193E+01
DAV:  21    -0.403661719588E+03    0.32191E+01   -0.21923E+00  3080   0.308E+00    0.152E+01
DAV:  22    -0.402113363360E+03    0.15484E+01   -0.10721E+00  2904   0.240E+00    0.117E+01
DAV:  23    -0.402277391452E+03   -0.16403E+00   -0.11034E-01  2744   0.978E-01    0.115E+01
DAV:  24    -0.400668144218E+03    0.16092E+01   -0.22625E+00  2984   0.341E+00    0.637E+00
DAV:  25    -0.400499577972E+03    0.16857E+00   -0.36527E-01  2816   0.153E+00    0.496E+00
DAV:  26    -0.400408679958E+03    0.90898E-01   -0.68829E-02  3248   0.401E-01    0.400E+00
DAV:  27    -0.400413478944E+03   -0.47990E-02   -0.19040E-02  2704   0.332E-01    0.364E+00
DAV:  28    -0.400401243166E+03    0.12236E-01   -0.25887E-03  3224   0.110E-01    0.352E+00
DAV:  29    -0.400352263885E+03    0.48979E-01   -0.20738E-02  2992   0.217E-01    0.289E+00
DAV:  30    -0.400302394715E+03    0.49869E-01   -0.32222E-02  3016   0.325E-01    0.218E+00
DAV:  31    -0.400279160807E+03    0.23234E-01   -0.12698E-02  3080   0.201E-01    0.169E+00
DAV:  32    -0.400258541150E+03    0.20620E-01   -0.14437E-02  3040   0.214E-01    0.117E+00
DAV:  33    -0.400244144537E+03    0.14397E-01   -0.16807E-02  2960   0.221E-01    0.639E-01
DAV:  34    -0.400241382700E+03    0.27618E-02   -0.54835E-03  3136   0.158E-01    0.414E-01
DAV:  35    -0.400239270043E+03    0.21127E-02   -0.41852E-03  3064   0.116E-01    0.155E-01
DAV:  36    -0.400239304706E+03   -0.34663E-04   -0.11448E-03  3176   0.643E-02    0.544E-02
DAV:  37    -0.400239454155E+03   -0.14945E-03   -0.19756E-04  2808   0.322E-02    0.654E-02
DAV:  38    -0.400239420477E+03    0.33677E-04   -0.49689E-05  2680   0.170E-02    0.523E-02
DAV:  39    -0.400239391048E+03    0.29429E-04   -0.83085E-05  3000   0.170E-02    0.188E-02
DAV:  40    -0.400239382930E+03    0.81183E-05   -0.27600E-05  2200   0.918E-03    0.561E-03
DAV:  41    -0.400239382762E+03    0.16773E-06   -0.42075E-06  1328   0.445E-03
   1 F= -.40023938E+03 E0= -.40018487E+03  d E =-.109021E+00
 running on   16 total cores
 distrk:  each k-point on    8 cores,    2 groups
 distr:  one band on    4 cores,    2 groups
 using from now: INCAR     
 vasp.5.4.4.18Apr17-6-g9f103f2a35 (build Nov 27 2019 20:08:17) complex          
  
 POSCAR found type information on POSCAR  Ti
 POSCAR found :  1 types and      36 ions
 scaLAPACK will be used

 ----------------------------------------------------------------------------- 
|                                                                             |
|           W    W    AA    RRRRR   N    N  II  N    N   GGGG   !!!           |
|           W    W   A  A   R    R  NN   N  II  NN   N  G    G  !!!           |
|           W    W  A    A  R    R  N N  N  II  N N  N  G       !!!           |
|           W WW W  AAAAAA  RRRRR   N  N N  II  N  N N  G  GGG   !            |
|           WW  WW  A    A  R   R   N   NN  II  N   NN  G    G                |
|           W    W  A    A  R    R  N    N  II  N    N   GGGG   !!!           |
|                                                                             |
|      You have enabled k-point parallelism (KPAR>1).                         |
|      This developmental code was originally  written by Paul Kent at ORNL,  |
|      and carefully double checked in Vienna.                                |
|      GW as well as linear response parallelism added by Martijn Marsman     |
|      and Georg Kresse.                                                      |
|      Carefully verify results versus KPAR=1.                                |
|      Report problems to Paul Kent and Vienna.                               |
|                                                                             |
 ----------------------------------------------------------------------------- 

 LDA part: xc-table for Pade appr. of Perdew
 POSCAR found type information on POSCAR  Ti
 POSCAR found :  1 types and      36 ions
 POSCAR, INCAR and KPOINTS ok, starting setup
 FFT: planning ...
 WAVECAR not read
 WARNING: random wavefunctions but no delay for mixing, default for NELMDL
 entering main loop
       N       E                     dE             d eps       ncg     rms          rms(c)
DAV:   1     0.732030195824E+03    0.73203E+03   -0.40645E+04  1288   0.107E+03
DAV:   2    -0.186046036220E+03   -0.91808E+03   -0.88148E+03  1288   0.243E+02
DAV:   3    -0.320338430510E+03   -0.13429E+03   -0.12597E+03  1968   0.862E+01
DAV:   4    -0.330575384684E+03   -0.10237E+02   -0.95163E+01  1928   0.281E+01
DAV:   5    -0.331133075940E+03   -0.55769E+00   -0.54503E+00  2048   0.586E+00    0.781E+01
DAV:   6    -0.500615118286E+03   -0.16948E+03   -0.28879E+03  2424   0.989E+01    0.997E+01
DAV:   7    -0.286300926258E+03    0.21431E+03   -0.39159E+03  2228   0.176E+02    0.340E+01
DAV:   8    -0.285328747554E+03    0.97218E+00   -0.57446E+02  1912   0.779E+01    0.386E+01
DAV:   9    -0.268627990943E+03    0.16701E+02   -0.89814E+01  2028   0.311E+01    0.290E+01
DAV:  10    -0.266663429092E+03    0.19646E+01   -0.65235E+00  2064   0.681E+00    0.271E+01
DAV:  11    -0.265220355820E+03    0.14431E+01   -0.10572E+00  2184   0.277E+00    0.250E+01
DAV:  12    -0.262111003406E+03    0.31094E+01   -0.78948E+00  1940   0.851E+00    0.205E+01
DAV:  13    -0.256341089360E+03    0.57699E+01   -0.27557E+01  2112   0.146E+01    0.703E+00
DAV:  14    -0.256075660885E+03    0.26543E+00   -0.26589E+00  2088   0.413E+00    0.476E+00
DAV:  15    -0.256173085188E+03   -0.97424E-01   -0.63453E-01  2032   0.221E+00    0.505E+00
DAV:  16    -0.255937476270E+03    0.23561E+00   -0.24574E+00  2096   0.391E+00    0.324E+00
DAV:  17    -0.255793274419E+03    0.14420E+00   -0.67014E-01  2072   0.258E+00    0.121E+00
DAV:  18    -0.255788464516E+03    0.48099E-02   -0.19703E-01  1976   0.135E+00    0.855E-01
DAV:  19    -0.255818668276E+03   -0.30204E-01   -0.30709E-01  1948   0.161E+00    0.150E+00
DAV:  20    -0.255804111109E+03    0.14557E-01   -0.17173E-01  1976   0.109E+00    0.746E-01
DAV:  21    -0.255794836272E+03    0.92748E-02   -0.33787E-02  1880   0.714E-01    0.187E-01
DAV:  22    -0.255796077310E+03   -0.12410E-02   -0.51475E-03  2200   0.163E-01    0.156E-01
DAV:  23    -0.255796797230E+03   -0.71992E-03   -0.16106E-03  1912   0.138E-01    0.966E-02
DAV:  24    -0.255796934554E+03   -0.13732E-03   -0.22400E-03  2024   0.131E-01    0.106E-01
DAV:  25    -0.255796995143E+03   -0.60589E-04   -0.10416E-03  2008   0.894E-02    0.417E-02
DAV:  26    -0.255797217239E+03   -0.22210E-03   -0.18813E-04  1928   0.417E-02    0.356E-02
DAV:  27    -0.255797411499E+03   -0.19426E-03   -0.14147E-04  2016   0.262E-02    0.209E-02
DAV:  28    -0.255797518974E+03   -0.10747E-03   -0.58521E-05  1864   0.229E-02    0.138E-02
DAV:  29    -0.255797653191E+03   -0.13422E-03   -0.27135E-05  1448   0.148E-02    0.876E-03
DAV:  30    -0.255797665242E+03   -0.12051E-04   -0.24192E-06   896   0.486E-03    0.602E-03
DAV:  31    -0.255797673860E+03   -0.86180E-05   -0.26872E-06   896   0.551E-03    0.239E-03
DAV:  32    -0.255797675549E+03   -0.16892E-05   -0.11063E-06   880   0.254E-03
   1 F= -.25579768E+03 E0= -.25572890E+03  d E =-.137554E+00
 running on   16 total cores
 distrk:  each k-point on    8 cores,    2 groups
 distr:  one band on    4 cores,    2 groups
 using from now: INCAR     
 vasp.5.4.4.18Apr17-6-g9f103f2a35 (build Nov 27 2019 20:08:17) complex          
  
 POSCAR found type information on POSCAR  Ti
 POSCAR found :  1 types and      90 ions
 scaLAPACK will be used

 ----------------------------------------------------------------------------- 
|                                                                             |
|           W    W    AA    RRRRR   N    N  II  N    N   GGGG   !!!           |
|           W    W   A  A   R    R  NN   N  II  NN   N  G    G  !!!           |
|           W    W  A    A  R    R  N N  N  II  N N  N  G       !!!           |
|           W WW W  AAAAAA  RRRRR   N  N N  II  N  N N  G  GGG   !            |
|           WW  WW  A    A  R   R   N   NN  II  N   NN  G    G                |
|           W    W  A    A  R    R  N    N  II  N    N   GGGG   !!!           |
|                                                                             |
|      You have enabled k-point parallelism (KPAR>1).                         |
|      This developmental code was originally  written by Paul Kent at ORNL,  |
|      and carefully double checked in Vienna.                                |
|      GW as well as linear response parallelism added by Martijn Marsman     |
|      and Georg Kresse.                                                      |
|      Carefully verify results versus KPAR=1.                                |
|      Report problems to Paul Kent and Vienna.                               |
|                                                                             |
 ----------------------------------------------------------------------------- 

 LDA part: xc-table for Pade appr. of Perdew
 POSCAR found type information on POSCAR  Ti
 POSCAR found :  1 types and      90 ions
 POSCAR, INCAR and KPOINTS ok, starting setup
 FFT: planning ...
 WAVECAR not read
 WARNING: random wavefunctions but no delay for mixing, default for NELMDL
 entering main loop
       N       E                     dE             d eps       ncg     rms          rms(c)
DAV:   1     0.155872250895E+04    0.15587E+04   -0.10349E+05  3164   0.124E+03
DAV:   2    -0.464171204968E+03   -0.20229E+04   -0.19669E+04  3164   0.278E+02
DAV:   3    -0.765022075285E+03   -0.30085E+03   -0.28108E+03  4672   0.969E+01
DAV:   4    -0.789582132719E+03   -0.24560E+02   -0.23142E+02  4656   0.290E+01
DAV:   5    -0.790545404312E+03   -0.96327E+00   -0.93954E+00  4552   0.456E+00    0.119E+02
DAV:   6    -0.197803587453E+04   -0.11875E+04   -0.11414E+04  6250   0.174E+02    0.153E+02
DAV:   7    -0.104624042708E+04    0.93180E+03   -0.18326E+04  5772   0.179E+02    0.968E+01
DAV:   8    -0.693439434723E+03    0.35280E+03   -0.34699E+03  5050   0.143E+02    0.627E+01
DAV:   9    -0.714237262740E+03   -0.20798E+02   -0.12071E+03  5400   0.708E+01    0.527E+01
DAV:  10    -0.706112324533E+03    0.81249E+01   -0.24265E+02  5088   0.289E+01    0.416E+01
DAV:  11    -0.705406056256E+03    0.70627E+00   -0.18647E+01  4944   0.812E+00    0.411E+01
DAV:  12    -0.706478944799E+03   -0.10729E+01   -0.14183E+00  4952   0.169E+00    0.421E+01
DAV:  13    -0.705944299981E+03    0.53464E+00   -0.40401E-01  5128   0.107E+00    0.415E+01
DAV:  14    -0.698759705698E+03    0.71846E+01   -0.11875E+01  4480   0.846E+00    0.322E+01
DAV:  15    -0.689956847377E+03    0.88029E+01   -0.99676E+00  4032   0.782E+00    0.228E+01
DAV:  16    -0.688426284827E+03    0.15306E+01   -0.12407E+00  4784   0.243E+00    0.214E+01
DAV:  17    -0.687316334711E+03    0.11100E+01   -0.99453E-01  4968   0.203E+00    0.196E+01
DAV:  18    -0.685509028547E+03    0.18073E+01   -0.26269E+00  4816   0.317E+00    0.167E+01
DAV:  19    -0.682387133910E+03    0.31219E+01   -0.43925E+00  4552   0.473E+00    0.106E+01
DAV:  20    -0.680764712655E+03    0.16224E+01   -0.46790E+00  4584   0.493E+00    0.579E+00
DAV:  21    -0.680449164758E+03    0.31555E+00   -0.20621E+00  4288   0.339E+00    0.462E+00
DAV:  22    -0.680371607348E+03    0.77557E-01   -0.64822E-01  4736   0.188E+00    0.439E+00
DAV:  23    -0.680330668501E+03    0.40939E-01   -0.44632E-01  4776   0.139E+00    0.360E+00
DAV:  24    -0.680287016842E+03    0.43652E-01   -0.32180E-01  4760   0.128E+00    0.249E+00
DAV:  25    -0.680288642502E+03   -0.16257E-02   -0.38355E-01  4888   0.139E+00    0.205E+00
DAV:  26    -0.680295463631E+03   -0.68211E-02   -0.82805E-02  4976   0.606E-01    0.205E+00
DAV:  27    -0.680284888904E+03    0.10575E-01   -0.30608E-02  4784   0.428E-01    0.165E+00
DAV:  28    -0.680258785982E+03    0.26103E-01   -0.42710E-02  4888   0.428E-01    0.118E+00
DAV:  29    -0.680238658063E+03    0.20128E-01   -0.60381E-02  5064   0.514E-01    0.712E-01
DAV:  30    -0.680234134020E+03    0.45240E-02   -0.10694E-02  4536   0.209E-01    0.532E-01
DAV:  31    -0.680232223254E+03    0.19108E-02   -0.39431E-03  4192   0.152E-01    0.375E-01
DAV:  32    -0.680230979843E+03    0.12434E-02   -0.20880E-03  4608   0.103E-01    0.228E-01
DAV:  33    -0.680230539312E+03    0.44053E-03   -0.17611E-03  4464   0.948E-02    0.787E-02
DAV:  34    -0.680230482287E+03    0.57024E-04   -0.47098E-04  4256   0.521E-02    0.324E-02
DAV:  35    -0.680230481325E+03    0.96186E-06   -0.11271E-04  4768   0.232E-02    0.172E-02
DAV:  36    -0.680230490820E+03   -0.94944E-05   -0.88211E-05  4120   0.230E-02    0.322E-02
DAV:  37    -0.680230484543E+03    0.62772E-05   -0.22138E-05  3072   0.105E-02    0.224E-02
DAV:  38    -0.680230478662E+03    0.58807E-05   -0.24967E-05  3240   0.127E-02    0.627E-03
DAV:  39    -0.680230479010E+03   -0.34812E-06   -0.37391E-06  1992   0.482E-03
   1 F= -.68023048E+03 E0= -.68013553E+03  d E =-.189898E+00
Distance=1.700
 running on   16 total cores
 distrk:  each k-point on    8 cores,    2 groups
 distr:  one band on    4 cores,    2 groups
 using from now: INCAR     
 vasp.5.4.4.18Apr17-6-g9f103f2a35 (build Nov 27 2019 20:08:17) complex          
  
 POSCAR found type information on POSCAR  Ti
 POSCAR found :  1 types and      54 ions
 scaLAPACK will be used

 ----------------------------------------------------------------------------- 
|                                                                             |
|           W    W    AA    RRRRR   N    N  II  N    N   GGGG   !!!           |
|           W    W   A  A   R    R  NN   N  II  NN   N  G    G  !!!           |
|           W    W  A    A  R    R  N N  N  II  N N  N  G       !!!           |
|           W WW W  AAAAAA  RRRRR   N  N N  II  N  N N  G  GGG   !            |
|           WW  WW  A    A  R   R   N   NN  II  N   NN  G    G                |
|           W    W  A    A  R    R  N    N  II  N    N   GGGG   !!!           |
|                                                                             |
|      You have enabled k-point parallelism (KPAR>1).                         |
|      This developmental code was originally  written by Paul Kent at ORNL,  |
|      and carefully double checked in Vienna.                                |
|      GW as well as linear response parallelism added by Martijn Marsman     |
|      and Georg Kresse.                                                      |
|      Carefully verify results versus KPAR=1.                                |
|      Report problems to Paul Kent and Vienna.                               |
|                                                                             |
 ----------------------------------------------------------------------------- 

 LDA part: xc-table for Pade appr. of Perdew
 POSCAR found type information on POSCAR  Ti
 POSCAR found :  1 types and      54 ions
 POSCAR, INCAR and KPOINTS ok, starting setup
 FFT: planning ...
 WAVECAR not read
 entering main loop
       N       E                     dE             d eps       ncg     rms          rms(c)
DAV:   1     0.993814623004E+03    0.99381E+03   -0.62035E+04  1904   0.116E+03
DAV:   2    -0.279231124329E+03   -0.12730E+04   -0.12337E+04  1904   0.256E+02
DAV:   3    -0.468344818918E+03   -0.18911E+03   -0.17982E+03  3016   0.883E+01
DAV:   4    -0.485172822451E+03   -0.16828E+02   -0.15945E+02  3056   0.274E+01
DAV:   5    -0.486221500572E+03   -0.10487E+01   -0.99702E+00  3056   0.552E+00    0.858E+01
DAV:   6    -0.924252527930E+03   -0.43803E+03   -0.53623E+03  3792   0.108E+02    0.128E+02
DAV:   7    -0.438844750369E+03    0.48541E+03   -0.70833E+03  3456   0.158E+02    0.483E+01
DAV:   8    -0.408634744668E+03    0.30210E+02   -0.10423E+03  3136   0.918E+01    0.327E+01
DAV:   9    -0.415648245988E+03   -0.70135E+01   -0.19629E+02  3176   0.276E+01    0.292E+01
DAV:  10    -0.417644811072E+03   -0.19966E+01   -0.18975E+01  3184   0.779E+00    0.310E+01
DAV:  11    -0.417687903407E+03   -0.43092E-01   -0.15120E+00  3128   0.155E+00    0.310E+01
DAV:  12    -0.419023478766E+03   -0.13356E+01   -0.35078E+00  3008   0.450E+00    0.325E+01
DAV:  13    -0.419517196109E+03   -0.49372E+00   -0.35715E-01  3000   0.152E+00    0.338E+01
DAV:  14    -0.424248488707E+03   -0.47313E+01   -0.71804E+00  3064   0.463E+00    0.404E+01
DAV:  15    -0.440467788208E+03   -0.16219E+02   -0.30745E+01  3024   0.114E+01    0.557E+01
DAV:  16    -0.437841483785E+03    0.26263E+01   -0.63667E+00  2936   0.646E+00    0.523E+01
DAV:  17    -0.445760433367E+03   -0.79189E+01   -0.11424E+01  2960   0.809E+00    0.533E+01
DAV:  18    -0.432376527073E+03    0.13384E+02   -0.66887E+00  2872   0.680E+00    0.424E+01
DAV:  19    -0.433742009172E+03   -0.13655E+01   -0.62783E-01  2496   0.293E+00    0.423E+01
DAV:  20    -0.432687865391E+03    0.10541E+01   -0.11183E-01  3136   0.764E-01    0.422E+01
DAV:  21    -0.434262333656E+03   -0.15745E+01   -0.16586E-01  3136   0.117E+00    0.434E+01
DAV:  22    -0.434020915889E+03    0.24142E+00   -0.25675E-01  2784   0.140E+00    0.421E+01
DAV:  23    -0.434406616628E+03   -0.38570E+00   -0.19550E-02  2704   0.387E-01    0.424E+01
DAV:  24    -0.433997110733E+03    0.40951E+00   -0.76342E-03  2680   0.236E-01    0.420E+01
DAV:  25    -0.432176377607E+03    0.18207E+01   -0.10194E-01  2832   0.771E-01    0.410E+01
DAV:  26    -0.428440381331E+03    0.37360E+01   -0.41411E-01  2968   0.148E+00    0.387E+01
DAV:  27    -0.425406253827E+03    0.30341E+01   -0.41548E-01  2896   0.133E+00    0.369E+01
DAV:  28    -0.415388004306E+03    0.10018E+02   -0.46802E+00  3024   0.456E+00    0.300E+01
DAV:  29    -0.411722544903E+03    0.36655E+01   -0.17441E+00  3016   0.294E+00    0.261E+01
DAV:  30    -0.410310461228E+03    0.14121E+01   -0.28949E-01  3096   0.957E-01    0.244E+01
DAV:  31    -0.403206431347E+03    0.71040E+01   -0.83802E+00  3072   0.594E+00    0.147E+01
DAV:  32    -0.401624609758E+03    0.15818E+01   -0.18944E+00  3000   0.285E+00    0.101E+01
DAV:  33    -0.401623236388E+03    0.13734E-02   -0.15300E-01  2696   0.897E-01    0.101E+01
DAV:  34    -0.401442127495E+03    0.18111E+00   -0.57368E-02  3216   0.503E-01    0.940E+00
DAV:  35    -0.401515986452E+03   -0.73859E-01   -0.16029E-01  3040   0.978E-01    0.887E+00
DAV:  36    -0.401065277151E+03    0.45071E+00   -0.36980E-01  3040   0.116E+00    0.715E+00
DAV:  37    -0.400865360400E+03    0.19992E+00   -0.12141E-01  3032   0.591E-01    0.633E+00
DAV:  38    -0.400533871966E+03    0.33149E+00   -0.27712E-01  3024   0.839E-01    0.492E+00
DAV:  39    -0.400316055309E+03    0.21782E+00   -0.44463E-01  3048   0.117E+00    0.323E+00
DAV:  40    -0.400279400940E+03    0.36654E-01   -0.12453E-01  3160   0.658E-01    0.260E+00
DAV:  41    -0.400288274212E+03   -0.88733E-02   -0.21223E-02  2736   0.381E-01    0.265E+00
DAV:  42    -0.400275402680E+03    0.12872E-01   -0.13597E-02  3104   0.294E-01    0.240E+00
DAV:  43    -0.400269614783E+03    0.57879E-02   -0.69041E-03  2736   0.267E-01    0.222E+00
DAV:  44    -0.400261733043E+03    0.78817E-02   -0.35844E-03  2656   0.139E-01    0.202E+00
DAV:  45    -0.400257276188E+03    0.44569E-02   -0.26073E-03  3048   0.128E-01    0.184E+00
DAV:  46    -0.400250763048E+03    0.65131E-02   -0.56628E-03  2752   0.176E-01    0.149E+00
DAV:  47    -0.400246039244E+03    0.47238E-02   -0.30058E-03  2808   0.134E-01    0.114E+00
DAV:  48    -0.400242491348E+03    0.35479E-02   -0.33671E-03  2952   0.113E-01    0.794E-01
DAV:  49    -0.400240318628E+03    0.21727E-02   -0.29465E-03  2992   0.110E-01    0.445E-01
DAV:  50    -0.400239478301E+03    0.84033E-03   -0.16122E-03  3080   0.790E-02    0.202E-01
DAV:  51    -0.400239310114E+03    0.16819E-03   -0.32544E-04  3224   0.337E-02    0.900E-02
DAV:  52    -0.400239242780E+03    0.67334E-04   -0.18292E-04  2616   0.311E-02    0.142E-02
DAV:  53    -0.400239239740E+03    0.30395E-05   -0.23118E-05  2144   0.894E-03
   1 F= -.40023924E+03 E0= -.40018472E+03  d E =-.109043E+00
 running on   16 total cores
 distrk:  each k-point on    8 cores,    2 groups
 distr:  one band on    4 cores,    2 groups
 using from now: INCAR     
 vasp.5.4.4.18Apr17-6-g9f103f2a35 (build Nov 27 2019 20:08:17) complex          
  
 POSCAR found type information on POSCAR  Ti
 POSCAR found :  1 types and      36 ions
 scaLAPACK will be used

 ----------------------------------------------------------------------------- 
|                                                                             |
|           W    W    AA    RRRRR   N    N  II  N    N   GGGG   !!!           |
|           W    W   A  A   R    R  NN   N  II  NN   N  G    G  !!!           |
|           W    W  A    A  R    R  N N  N  II  N N  N  G       !!!           |
|           W WW W  AAAAAA  RRRRR   N  N N  II  N  N N  G  GGG   !            |
|           WW  WW  A    A  R   R   N   NN  II  N   NN  G    G                |
|           W    W  A    A  R    R  N    N  II  N    N   GGGG   !!!           |
|                                                                             |
|      You have enabled k-point parallelism (KPAR>1).                         |
|      This developmental code was originally  written by Paul Kent at ORNL,  |
|      and carefully double checked in Vienna.                                |
|      GW as well as linear response parallelism added by Martijn Marsman     |
|      and Georg Kresse.                                                      |
|      Carefully verify results versus KPAR=1.                                |
|      Report problems to Paul Kent and Vienna.                               |
|                                                                             |
 ----------------------------------------------------------------------------- 

 LDA part: xc-table for Pade appr. of Perdew
 POSCAR found type information on POSCAR  Ti
 POSCAR found :  1 types and      36 ions
 POSCAR, INCAR and KPOINTS ok, starting setup
 FFT: planning ...
 WAVECAR not read
 WARNING: random wavefunctions but no delay for mixing, default for NELMDL
 entering main loop
       N       E                     dE             d eps       ncg     rms          rms(c)
DAV:   1     0.727082833497E+03    0.72708E+03   -0.40509E+04  1288   0.107E+03
DAV:   2    -0.186270827666E+03   -0.91335E+03   -0.87828E+03  1288   0.243E+02
DAV:   3    -0.320600893619E+03   -0.13433E+03   -0.12643E+03  1984   0.861E+01
DAV:   4    -0.330635381573E+03   -0.10034E+02   -0.93848E+01  1904   0.280E+01
DAV:   5    -0.331138290606E+03   -0.50291E+00   -0.49318E+00  2040   0.572E+00    0.782E+01
DAV:   6    -0.501564293049E+03   -0.17043E+03   -0.29031E+03  2444   0.990E+01    0.998E+01
DAV:   7    -0.286806370425E+03    0.21476E+03   -0.39493E+03  2244   0.177E+02    0.343E+01
DAV:   8    -0.284811098986E+03    0.19953E+01   -0.57309E+02  1904   0.783E+01    0.382E+01
DAV:   9    -0.268641596077E+03    0.16170E+02   -0.83612E+01  2028   0.298E+01    0.290E+01
DAV:  10    -0.267102859122E+03    0.15387E+01   -0.58748E+00  2080   0.644E+00    0.275E+01
DAV:  11    -0.265986818134E+03    0.11160E+01   -0.84833E-01  2136   0.229E+00    0.260E+01
DAV:  12    -0.261692489060E+03    0.42943E+01   -0.12179E+01  1920   0.107E+01    0.196E+01
DAV:  13    -0.256329033216E+03    0.53635E+01   -0.26643E+01  2152   0.137E+01    0.714E+00
DAV:  14    -0.256086458559E+03    0.24257E+00   -0.23669E+00  2056   0.432E+00    0.509E+00
DAV:  15    -0.256298828007E+03   -0.21237E+00   -0.14323E+00  2040   0.305E+00    0.592E+00
DAV:  16    -0.255965266372E+03    0.33356E+00   -0.31724E+00  2088   0.431E+00    0.351E+00
DAV:  17    -0.255815383401E+03    0.14988E+00   -0.46615E-01  1992   0.215E+00    0.177E+00
DAV:  18    -0.255799213226E+03    0.16170E-01   -0.57860E-01  2072   0.233E+00    0.126E+00
DAV:  19    -0.255828601361E+03   -0.29388E-01   -0.54346E-01  1968   0.196E+00    0.179E+00
DAV:  20    -0.255812674469E+03    0.15927E-01   -0.59465E-02  2112   0.797E-01    0.122E+00
DAV:  21    -0.255795344236E+03    0.17330E-01   -0.12222E-01  2000   0.948E-01    0.213E-01
DAV:  22    -0.255796748374E+03   -0.14041E-02   -0.99695E-03  1928   0.290E-01    0.278E-01
DAV:  23    -0.255796793931E+03   -0.45557E-04   -0.53909E-03  1912   0.193E-01    0.466E-02
DAV:  24    -0.255797042114E+03   -0.24818E-03   -0.10079E-03  2040   0.728E-02    0.583E-02
DAV:  25    -0.255797188123E+03   -0.14601E-03   -0.36416E-04  1888   0.448E-02    0.287E-02
DAV:  26    -0.255797342755E+03   -0.15463E-03   -0.12388E-04  2200   0.301E-02    0.295E-02
DAV:  27    -0.255797604383E+03   -0.26163E-03   -0.77562E-05  1832   0.202E-02    0.180E-02
DAV:  28    -0.255797720748E+03   -0.11636E-03   -0.27065E-05  1528   0.125E-02    0.557E-03
DAV:  29    -0.255797829018E+03   -0.10827E-03   -0.59092E-06  1016   0.657E-03    0.500E-03
DAV:  30    -0.255797851618E+03   -0.22600E-04   -0.29996E-06   872   0.560E-03    0.257E-03
DAV:  31    -0.255797856698E+03   -0.50801E-05   -0.14418E-06   872   0.413E-03    0.298E-03
DAV:  32    -0.255797862411E+03   -0.57126E-05   -0.81286E-07   856   0.289E-03    0.280E-03
DAV:  33    -0.255797862725E+03   -0.31436E-06   -0.31529E-07   848   0.190E-03
   1 F= -.25579786E+03 E0= -.25572908E+03  d E =-.137558E+00
 running on   16 total cores
 distrk:  each k-point on    8 cores,    2 groups
 distr:  one band on    4 cores,    2 groups
 using from now: INCAR     
 vasp.5.4.4.18Apr17-6-g9f103f2a35 (build Nov 27 2019 20:08:17) complex          
  
 POSCAR found type information on POSCAR  Ti
 POSCAR found :  1 types and      90 ions
 scaLAPACK will be used

 ----------------------------------------------------------------------------- 
|                                                                             |
|           W    W    AA    RRRRR   N    N  II  N    N   GGGG   !!!           |
|           W    W   A  A   R    R  NN   N  II  NN   N  G    G  !!!           |
|           W    W  A    A  R    R  N N  N  II  N N  N  G       !!!           |
|           W WW W  AAAAAA  RRRRR   N  N N  II  N  N N  G  GGG   !            |
|           WW  WW  A    A  R   R   N   NN  II  N   NN  G    G                |
|           W    W  A    A  R    R  N    N  II  N    N   GGGG   !!!           |
|                                                                             |
|      You have enabled k-point parallelism (KPAR>1).                         |
|      This developmental code was originally  written by Paul Kent at ORNL,  |
|      and carefully double checked in Vienna.                                |
|      GW as well as linear response parallelism added by Martijn Marsman     |
|      and Georg Kresse.                                                      |
|      Carefully verify results versus KPAR=1.                                |
|      Report problems to Paul Kent and Vienna.                               |
|                                                                             |
 ----------------------------------------------------------------------------- 

 LDA part: xc-table for Pade appr. of Perdew
 POSCAR found type information on POSCAR  Ti
 POSCAR found :  1 types and      90 ions
 POSCAR, INCAR and KPOINTS ok, starting setup
 FFT: planning ...
 WAVECAR not read
 WARNING: random wavefunctions but no delay for mixing, default for NELMDL
 entering main loop
       N       E                     dE             d eps       ncg     rms          rms(c)
DAV:   1     0.155256250438E+04    0.15526E+04   -0.10334E+05  3164   0.124E+03
DAV:   2    -0.463983471607E+03   -0.20165E+04   -0.19611E+04  3164   0.278E+02
DAV:   3    -0.763924132296E+03   -0.29994E+03   -0.27918E+03  4624   0.966E+01
DAV:   4    -0.789080346946E+03   -0.25156E+02   -0.23708E+02  4664   0.290E+01
DAV:   5    -0.790076770900E+03   -0.99642E+00   -0.96974E+00  4536   0.466E+00    0.118E+02
DAV:   6    -0.191407175301E+04   -0.11240E+04   -0.10752E+04  6266   0.168E+02    0.147E+02
DAV:   7    -0.106109764415E+04    0.85297E+03   -0.18080E+04  5788   0.178E+02    0.954E+01
DAV:   8    -0.686438459612E+03    0.37466E+03   -0.33359E+03  4994   0.138E+02    0.605E+01
DAV:   9    -0.712664195745E+03   -0.26226E+02   -0.11556E+03  5368   0.663E+01    0.517E+01
DAV:  10    -0.705168472108E+03    0.74957E+01   -0.23113E+02  5064   0.277E+01    0.402E+01
DAV:  11    -0.704981666896E+03    0.18681E+00   -0.16543E+01  4976   0.740E+00    0.399E+01
DAV:  12    -0.705581967062E+03   -0.60030E+00   -0.11314E+00  4840   0.137E+00    0.405E+01
DAV:  13    -0.705407681929E+03    0.17429E+00   -0.16228E-01  5184   0.559E-01    0.402E+01
DAV:  14    -0.702477147344E+03    0.29305E+01   -0.98985E+00  4920   0.738E+00    0.351E+01
DAV:  15    -0.698290848415E+03    0.41863E+01   -0.33807E+00  4216   0.444E+00    0.307E+01
DAV:  16    -0.695646729985E+03    0.26441E+01   -0.11792E+00  4632   0.264E+00    0.283E+01
DAV:  17    -0.691010065553E+03    0.46367E+01   -0.36274E+00  4880   0.404E+00    0.237E+01
DAV:  18    -0.686898827571E+03    0.41112E+01   -0.51136E+00  4800   0.489E+00    0.184E+01
DAV:  19    -0.682760713736E+03    0.41381E+01   -0.73182E+00  4416   0.607E+00    0.119E+01
DAV:  20    -0.681911117593E+03    0.84960E+00   -0.28286E+00  4504   0.378E+00    0.995E+00
DAV:  21    -0.681558067796E+03    0.35305E+00   -0.96307E-01  4384   0.240E+00    0.847E+00
DAV:  22    -0.681378577742E+03    0.17949E+00   -0.60983E-01  4832   0.170E+00    0.604E+00
DAV:  23    -0.681370926627E+03    0.76511E-02   -0.19095E+00  4992   0.309E+00    0.399E+00
DAV:  24    -0.681633414147E+03   -0.26249E+00   -0.93446E-01  5040   0.197E+00    0.547E+00
DAV:  25    -0.681560521355E+03    0.72893E-01   -0.22314E-01  4296   0.113E+00    0.499E+00
DAV:  26    -0.681293054990E+03    0.26747E+00   -0.40652E-01  4880   0.138E+00    0.360E+00
DAV:  27    -0.681121630090E+03    0.17142E+00   -0.54936E-01  4992   0.148E+00    0.261E+00
DAV:  28    -0.681098313478E+03    0.23317E-01   -0.85768E-02  4928   0.561E-01    0.228E+00
DAV:  29    -0.681074954932E+03    0.23359E-01   -0.60646E-02  4792   0.513E-01    0.172E+00
DAV:  30    -0.681069707427E+03    0.52475E-02   -0.65236E-02  4088   0.613E-01    0.134E+00
DAV:  31    -0.681039627881E+03    0.30080E-01   -0.87736E-02  4864   0.627E-01    0.744E-01
DAV:  32    -0.681036430145E+03    0.31977E-02   -0.16949E-02  4880   0.256E-01    0.367E-01
DAV:  33    -0.681034578273E+03    0.18519E-02   -0.68242E-03  5080   0.174E-01    0.246E-01
DAV:  34    -0.681035009018E+03   -0.43075E-03   -0.15284E-03  4696   0.934E-02    0.287E-01
DAV:  35    -0.681034037807E+03    0.97121E-03   -0.18222E-03  4872   0.903E-02    0.196E-01
DAV:  36    -0.681033690093E+03    0.34771E-03   -0.82171E-04  4440   0.618E-02    0.104E-01
DAV:  37    -0.681033579544E+03    0.11055E-03   -0.40421E-04  5048   0.361E-02    0.577E-02
DAV:  38    -0.681033557522E+03    0.22023E-04   -0.12372E-04  4440   0.231E-02    0.228E-02
DAV:  39    -0.681033555823E+03    0.16990E-05   -0.13052E-05  2608   0.852E-03
   1 F= -.68103356E+03 E0= -.68093678E+03  d E =-.193558E+00
Distance=1.750
 running on   16 total cores
 distrk:  each k-point on    8 cores,    2 groups
 distr:  one band on    4 cores,    2 groups
 using from now: INCAR     
 vasp.5.4.4.18Apr17-6-g9f103f2a35 (build Nov 27 2019 20:08:17) complex          
  
 POSCAR found type information on POSCAR  Ti
 POSCAR found :  1 types and      54 ions
 scaLAPACK will be used

 ----------------------------------------------------------------------------- 
|                                                                             |
|           W    W    AA    RRRRR   N    N  II  N    N   GGGG   !!!           |
|           W    W   A  A   R    R  NN   N  II  NN   N  G    G  !!!           |
|           W    W  A    A  R    R  N N  N  II  N N  N  G       !!!           |
|           W WW W  AAAAAA  RRRRR   N  N N  II  N  N N  G  GGG   !            |
|           WW  WW  A    A  R   R   N   NN  II  N   NN  G    G                |
|           W    W  A    A  R    R  N    N  II  N    N   GGGG   !!!           |
|                                                                             |
|      You have enabled k-point parallelism (KPAR>1).                         |
|      This developmental code was originally  written by Paul Kent at ORNL,  |
|      and carefully double checked in Vienna.                                |
|      GW as well as linear response parallelism added by Martijn Marsman     |
|      and Georg Kresse.                                                      |
|      Carefully verify results versus KPAR=1.                                |
|      Report problems to Paul Kent and Vienna.                               |
|                                                                             |
 ----------------------------------------------------------------------------- 

 LDA part: xc-table for Pade appr. of Perdew
 POSCAR found type information on POSCAR  Ti
 POSCAR found :  1 types and      54 ions
 POSCAR, INCAR and KPOINTS ok, starting setup
 FFT: planning ...
 WAVECAR not read
 entering main loop
       N       E                     dE             d eps       ncg     rms          rms(c)
DAV:   1     0.995215416452E+03    0.99522E+03   -0.61949E+04  1904   0.115E+03
DAV:   2    -0.279713592633E+03   -0.12749E+04   -0.12358E+04  1904   0.256E+02
DAV:   3    -0.468126264769E+03   -0.18841E+03   -0.17915E+03  2960   0.879E+01
DAV:   4    -0.485134696320E+03   -0.17008E+02   -0.16128E+02  3080   0.274E+01
DAV:   5    -0.486212552014E+03   -0.10779E+01   -0.10203E+01  3016   0.551E+00    0.858E+01
DAV:   6    -0.925195877495E+03   -0.43898E+03   -0.53468E+03  3768   0.108E+02    0.127E+02
DAV:   7    -0.438576384773E+03    0.48662E+03   -0.70482E+03  3408   0.158E+02    0.484E+01
DAV:   8    -0.407727423423E+03    0.30849E+02   -0.10441E+03  3136   0.916E+01    0.325E+01
DAV:   9    -0.415589735152E+03   -0.78623E+01   -0.19570E+02  3184   0.272E+01    0.292E+01
DAV:  10    -0.417671938350E+03   -0.20822E+01   -0.18479E+01  3160   0.771E+00    0.310E+01
DAV:  11    -0.417616575757E+03    0.55363E-01   -0.16852E+00  3120   0.163E+00    0.309E+01
DAV:  12    -0.417586164453E+03    0.30411E-01   -0.29514E+00  3048   0.424E+00    0.311E+01
DAV:  13    -0.415758057819E+03    0.18281E+01   -0.64251E-01  2576   0.233E+00    0.314E+01
DAV:  14    -0.417357840890E+03   -0.15998E+01   -0.51430E+01  3064   0.176E+01    0.346E+01
DAV:  15    -0.416438233248E+03    0.91961E+00   -0.24557E+00  2984   0.428E+00    0.338E+01
DAV:  16    -0.416440354721E+03   -0.21215E-02   -0.15884E-01  3096   0.829E-01    0.334E+01
DAV:  17    -0.410198384236E+03    0.62420E+01   -0.36503E+00  3048   0.449E+00    0.237E+01
DAV:  18    -0.409575257814E+03    0.62313E+00   -0.57773E-01  2432   0.243E+00    0.225E+01
DAV:  19    -0.409539541451E+03    0.35716E-01   -0.38856E-02  3280   0.344E-01    0.225E+01
DAV:  20    -0.409329063303E+03    0.21048E+00   -0.17633E-02  3304   0.405E-01    0.225E+01
DAV:  21    -0.408049085602E+03    0.12800E+01   -0.17650E-01  3000   0.903E-01    0.209E+01
DAV:  22    -0.404297831480E+03    0.37513E+01   -0.32136E+00  3104   0.403E+00    0.152E+01
DAV:  23    -0.402148710504E+03    0.21491E+01   -0.14894E+00  2992   0.258E+00    0.110E+01
DAV:  24    -0.402786690838E+03   -0.63798E+00   -0.33327E-01  2640   0.164E+00    0.126E+01
DAV:  25    -0.401166331852E+03    0.16204E+01   -0.14356E+00  3056   0.242E+00    0.899E+00
DAV:  26    -0.401233512612E+03   -0.67181E-01   -0.14333E-01  2760   0.111E+00    0.892E+00
DAV:  27    -0.400562961379E+03    0.67055E+00   -0.73599E-01  2976   0.171E+00    0.550E+00
DAV:  28    -0.400473733281E+03    0.89228E-01   -0.11031E-01  2864   0.783E-01    0.470E+00
DAV:  29    -0.400363694528E+03    0.11004E+00   -0.11049E-01  3120   0.736E-01    0.335E+00
DAV:  30    -0.400281890754E+03    0.81804E-01   -0.93728E-02  2920   0.623E-01    0.204E+00
DAV:  31    -0.400253605253E+03    0.28286E-01   -0.59696E-02  3136   0.478E-01    0.137E+00
DAV:  32    -0.400249512530E+03    0.40927E-02   -0.72138E-03  2816   0.237E-01    0.111E+00
DAV:  33    -0.400245783544E+03    0.37290E-02   -0.28324E-03  3160   0.930E-02    0.833E-01
DAV:  34    -0.400243003346E+03    0.27802E-02   -0.17820E-03  2736   0.914E-02    0.584E-01
DAV:  35    -0.400241430181E+03    0.15732E-02   -0.15651E-03  3112   0.812E-02    0.480E-01
DAV:  36    -0.400240355751E+03    0.10744E-02   -0.72201E-04  2944   0.425E-02    0.345E-01
DAV:  37    -0.400239455280E+03    0.90047E-03   -0.14270E-03  3040   0.598E-02    0.231E-01
DAV:  38    -0.400239397176E+03    0.58103E-04   -0.27164E-04  2728   0.386E-02    0.176E-01
DAV:  39    -0.400239354074E+03    0.43102E-04   -0.69350E-04  2968   0.424E-02    0.727E-02
DAV:  40    -0.400239362590E+03   -0.85158E-05   -0.13438E-04  3152   0.256E-02    0.586E-02
DAV:  41    -0.400239362006E+03    0.58354E-06   -0.29425E-05  2136   0.133E-02
   1 F= -.40023936E+03 E0= -.40018489E+03  d E =-.108935E+00
 running on   16 total cores
 distrk:  each k-point on    8 cores,    2 groups
 distr:  one band on    4 cores,    2 groups
 using from now: INCAR     
 vasp.5.4.4.18Apr17-6-g9f103f2a35 (build Nov 27 2019 20:08:17) complex          
  
 POSCAR found type information on POSCAR  Ti
 POSCAR found :  1 types and      36 ions
 scaLAPACK will be used

 ----------------------------------------------------------------------------- 
|                                                                             |
|           W    W    AA    RRRRR   N    N  II  N    N   GGGG   !!!           |
|           W    W   A  A   R    R  NN   N  II  NN   N  G    G  !!!           |
|           W    W  A    A  R    R  N N  N  II  N N  N  G       !!!           |
|           W WW W  AAAAAA  RRRRR   N  N N  II  N  N N  G  GGG   !            |
|           WW  WW  A    A  R   R   N   NN  II  N   NN  G    G                |
|           W    W  A    A  R    R  N    N  II  N    N   GGGG   !!!           |
|                                                                             |
|      You have enabled k-point parallelism (KPAR>1).                         |
|      This developmental code was originally  written by Paul Kent at ORNL,  |
|      and carefully double checked in Vienna.                                |
|      GW as well as linear response parallelism added by Martijn Marsman     |
|      and Georg Kresse.                                                      |
|      Carefully verify results versus KPAR=1.                                |
|      Report problems to Paul Kent and Vienna.                               |
|                                                                             |
 ----------------------------------------------------------------------------- 

 LDA part: xc-table for Pade appr. of Perdew
 POSCAR found type information on POSCAR  Ti
 POSCAR found :  1 types and      36 ions
 POSCAR, INCAR and KPOINTS ok, starting setup
 FFT: planning ...
 WAVECAR not read
 WARNING: random wavefunctions but no delay for mixing, default for NELMDL
 entering main loop
       N       E                     dE             d eps       ncg     rms          rms(c)
DAV:   1     0.724776806536E+03    0.72478E+03   -0.40531E+04  1288   0.107E+03
DAV:   2    -0.187449252642E+03   -0.91223E+03   -0.87639E+03  1288   0.242E+02
DAV:   3    -0.320609315437E+03   -0.13316E+03   -0.12425E+03  1968   0.857E+01
DAV:   4    -0.330610444243E+03   -0.10001E+02   -0.92865E+01  1904   0.280E+01
DAV:   5    -0.331135635012E+03   -0.52519E+00   -0.51466E+00  2032   0.575E+00    0.781E+01
DAV:   6    -0.502463423523E+03   -0.17133E+03   -0.29024E+03  2424   0.991E+01    0.999E+01
DAV:   7    -0.286943639713E+03    0.21552E+03   -0.39506E+03  2236   0.177E+02    0.342E+01
DAV:   8    -0.285343389733E+03    0.16002E+01   -0.57650E+02  1892   0.783E+01    0.384E+01
DAV:   9    -0.268738501641E+03    0.16605E+02   -0.87562E+01  2040   0.305E+01    0.290E+01
DAV:  10    -0.266975281327E+03    0.17632E+01   -0.63804E+00  2064   0.667E+00    0.273E+01
DAV:  11    -0.265548572167E+03    0.14267E+01   -0.10076E+00  2184   0.266E+00    0.253E+01
DAV:  12    -0.262221029871E+03    0.33275E+01   -0.96046E+00  1936   0.936E+00    0.205E+01
DAV:  13    -0.256356813163E+03    0.58642E+01   -0.27525E+01  2120   0.145E+01    0.718E+00
DAV:  14    -0.256079296143E+03    0.27752E+00   -0.25844E+00  2088   0.411E+00    0.489E+00
DAV:  15    -0.256200723483E+03   -0.12143E+00   -0.66753E-01  2056   0.229E+00    0.527E+00
DAV:  16    -0.255951712544E+03    0.24901E+00   -0.29517E+00  2088   0.426E+00    0.348E+00
DAV:  17    -0.255789931423E+03    0.16178E+00   -0.69753E-01  2072   0.267E+00    0.125E+00
DAV:  18    -0.255786896517E+03    0.30349E-02   -0.18624E-01  2072   0.124E+00    0.796E-01
DAV:  19    -0.255813303082E+03   -0.26407E-01   -0.21765E-01  1952   0.138E+00    0.133E+00
DAV:  20    -0.255801323983E+03    0.11979E-01   -0.17561E-01  2000   0.107E+00    0.688E-01
DAV:  21    -0.255794137982E+03    0.71860E-02   -0.26456E-02  1884   0.623E-01    0.164E-01
DAV:  22    -0.255796300982E+03   -0.21630E-02   -0.98614E-03  2112   0.226E-01    0.251E-01
DAV:  23    -0.255796293014E+03    0.79683E-05   -0.38484E-03  1960   0.189E-01    0.619E-02
DAV:  24    -0.255796484705E+03   -0.19169E-03   -0.76597E-04  2080   0.724E-02    0.729E-02
DAV:  25    -0.255796686337E+03   -0.20163E-03   -0.96688E-04  2120   0.797E-02    0.568E-02
DAV:  26    -0.255796922168E+03   -0.23583E-03   -0.36320E-04  2000   0.553E-02    0.260E-02
DAV:  27    -0.255797162190E+03   -0.24002E-03   -0.95558E-05  1968   0.200E-02    0.346E-02
DAV:  28    -0.255797252088E+03   -0.89897E-04   -0.88226E-05  1816   0.263E-02    0.105E-02
DAV:  29    -0.255797386019E+03   -0.13393E-03   -0.23316E-05  1496   0.115E-02    0.863E-03
DAV:  30    -0.255797411678E+03   -0.25659E-04   -0.21804E-06   896   0.455E-03    0.869E-03
DAV:  31    -0.255797420686E+03   -0.90088E-05   -0.26965E-06   896   0.584E-03    0.705E-03
DAV:  32    -0.255797421841E+03   -0.11542E-05   -0.11044E-06   896   0.300E-03
   1 F= -.25579742E+03 E0= -.25572864E+03  d E =-.137554E+00
 running on   16 total cores
 distrk:  each k-point on    8 cores,    2 groups
 distr:  one band on    4 cores,    2 groups
 using from now: INCAR     
 vasp.5.4.4.18Apr17-6-g9f103f2a35 (build Nov 27 2019 20:08:17) complex          
  
 POSCAR found type information on POSCAR  Ti
[...]
DAV:  27    -0.680206595125E+03    0.93214E-02   -0.29438E-02  4856   0.359E-01    0.339E-01
DAV:  28    -0.680205323335E+03    0.12718E-02   -0.10942E-02  4928   0.214E-01    0.247E-01
DAV:  29    -0.680205147002E+03    0.17633E-03   -0.21817E-03  4816   0.943E-02    0.221E-01
DAV:  30    -0.680204851824E+03    0.29518E-03   -0.14489E-03  4832   0.744E-02    0.111E-01
DAV:  31    -0.680204818831E+03    0.32994E-04   -0.75222E-04  4856   0.582E-02    0.696E-02
DAV:  32    -0.680204802426E+03    0.16404E-04   -0.29323E-04  4936   0.341E-02    0.597E-02
DAV:  33    -0.680204777166E+03    0.25260E-04   -0.79786E-05  4632   0.196E-02    0.450E-02
DAV:  34    -0.680204751266E+03    0.25900E-04   -0.71417E-05  4384   0.215E-02    0.197E-02
DAV:  35    -0.680204747748E+03    0.35174E-05   -0.16076E-05  2640   0.995E-03
   1 F= -.68020475E+03 E0= -.68010974E+03  d E =-.190009E+00
Distance=2.450
 running on   16 total cores
 distrk:  each k-point on    8 cores,    2 groups
 distr:  one band on    4 cores,    2 groups
 using from now: INCAR     
 vasp.5.4.4.18Apr17-6-g9f103f2a35 (build Nov 27 2019 20:08:17) complex          
  
 POSCAR found type information on POSCAR  Ti
 POSCAR found :  1 types and      54 ions
 scaLAPACK will be used

 ----------------------------------------------------------------------------- 
|                                                                             |
|           W    W    AA    RRRRR   N    N  II  N    N   GGGG   !!!           |
|           W    W   A  A   R    R  NN   N  II  NN   N  G    G  !!!           |
|           W    W  A    A  R    R  N N  N  II  N N  N  G       !!!           |
|           W WW W  AAAAAA  RRRRR   N  N N  II  N  N N  G  GGG   !            |
|           WW  WW  A    A  R   R   N   NN  II  N   NN  G    G                |
|           W    W  A    A  R    R  N    N  II  N    N   GGGG   !!!           |
|                                                                             |
|      You have enabled k-point parallelism (KPAR>1).                         |
|      This developmental code was originally  written by Paul Kent at ORNL,  |
|      and carefully double checked in Vienna.                                |
|      GW as well as linear response parallelism added by Martijn Marsman     |
|      and Georg Kresse.                                                      |
|      Carefully verify results versus KPAR=1.                                |
|      Report problems to Paul Kent and Vienna.                               |
|                                                                             |
 ----------------------------------------------------------------------------- 

 LDA part: xc-table for Pade appr. of Perdew
 POSCAR found type information on POSCAR  Ti
 POSCAR found :  1 types and      54 ions
 POSCAR, INCAR and KPOINTS ok, starting setup
 FFT: planning ...
 WAVECAR not read
 entering main loop
       N       E                     dE             d eps       ncg     rms          rms(c)
DAV:   1     0.101368768660E+04    0.10137E+04   -0.61905E+04  1904   0.115E+03
DAV:   2    -0.279193312350E+03   -0.12929E+04   -0.12533E+04  1904   0.255E+02
DAV:   3    -0.467841886892E+03   -0.18865E+03   -0.17909E+03  2984   0.871E+01
DAV:   4    -0.485096353562E+03   -0.17254E+02   -0.16377E+02  3088   0.276E+01
DAV:   5    -0.486199855594E+03   -0.11035E+01   -0.10395E+01  3056   0.566E+00    0.858E+01
DAV:   6    -0.925013177012E+03   -0.43881E+03   -0.53655E+03  3784   0.108E+02    0.127E+02
DAV:   7    -0.452453244937E+03    0.47256E+03   -0.74860E+03  3408   0.161E+02    0.504E+01
DAV:   8    -0.410183378099E+03    0.42270E+02   -0.10977E+03  3160   0.968E+01    0.343E+01
DAV:   9    -0.416287429888E+03   -0.61041E+01   -0.22045E+02  3192   0.304E+01    0.301E+01
DAV:  10    -0.417899608967E+03   -0.16122E+01   -0.23395E+01  3168   0.871E+00    0.313E+01
DAV:  11    -0.418076808431E+03   -0.17720E+00   -0.17083E+00  3088   0.177E+00    0.315E+01
DAV:  12    -0.422334907427E+03   -0.42581E+01   -0.99112E+00  3072   0.706E+00    0.348E+01
DAV:  13    -0.417706060576E+03    0.46288E+01   -0.10816E+01  3016   0.720E+00    0.309E+01
DAV:  14    -0.415039301279E+03    0.26668E+01   -0.22551E+01  3056   0.106E+01    0.275E+01
DAV:  15    -0.432480726306E+03   -0.17441E+02   -0.11931E+02  2880   0.255E+01    0.317E+01
DAV:  16    -0.425559778682E+03    0.69209E+01   -0.83201E+00  2696   0.815E+00    0.291E+01
DAV:  17    -0.421912903996E+03    0.36469E+01   -0.14749E+00  3000   0.241E+00    0.275E+01
DAV:  18    -0.419548667541E+03    0.23642E+01   -0.14170E+00  2880   0.226E+00    0.264E+01
DAV:  19    -0.417933891928E+03    0.16148E+01   -0.36274E-01  3072   0.154E+00    0.256E+01
DAV:  20    -0.420934668969E+03   -0.30008E+01   -0.10094E+00  2872   0.237E+00    0.272E+01
DAV:  21    -0.421197492239E+03   -0.26282E+00   -0.56123E-02  2880   0.575E-01    0.273E+01
DAV:  22    -0.422403668236E+03   -0.12062E+01   -0.72283E-02  3088   0.564E-01    0.281E+01
DAV:  23    -0.422055782808E+03    0.34789E+00   -0.10740E-02  2816   0.293E-01    0.280E+01
DAV:  24    -0.422127528830E+03   -0.71746E-01   -0.66436E-04  2872   0.573E-02    0.280E+01
DAV:  25    -0.419791384029E+03    0.23361E+01   -0.33567E-01  2880   0.119E+00    0.266E+01
DAV:  26    -0.414171410257E+03    0.56200E+01   -0.22411E+00  2968   0.302E+00    0.227E+01
DAV:  27    -0.411427189053E+03    0.27442E+01   -0.80206E-01  2984   0.179E+00    0.204E+01
DAV:  28    -0.410940931904E+03    0.48626E+00   -0.81039E-02  2952   0.617E-01    0.200E+01
DAV:  29    -0.407480635313E+03    0.34603E+01   -0.16495E+00  3032   0.250E+00    0.171E+01
DAV:  30    -0.406243629683E+03    0.12370E+01   -0.41387E-01  2952   0.120E+00    0.161E+01
DAV:  31    -0.402719246108E+03    0.35244E+01   -0.37500E+00  3064   0.360E+00    0.108E+01
DAV:  32    -0.401733735152E+03    0.98551E+00   -0.10617E+00  3136   0.217E+00    0.820E+00
DAV:  33    -0.400657711236E+03    0.10760E+01   -0.15755E+00  3072   0.222E+00    0.443E+00
DAV:  34    -0.400627684669E+03    0.30027E-01   -0.13316E-01  3000   0.912E-01    0.423E+00
DAV:  35    -0.400355958759E+03    0.27173E+00   -0.61158E-01  3008   0.120E+00    0.275E+00
DAV:  36    -0.400375416224E+03   -0.19457E-01   -0.12211E-01  2736   0.978E-01    0.278E+00
DAV:  37    -0.400269685186E+03    0.10573E+00   -0.20157E-01  3104   0.102E+00    0.153E+00
DAV:  38    -0.400244212344E+03    0.25473E-01   -0.78213E-02  3264   0.551E-01    0.842E-01
DAV:  39    -0.400241511323E+03    0.27010E-02   -0.96762E-03  2912   0.251E-01    0.648E-01
DAV:  40    -0.400238898858E+03    0.26125E-02   -0.12346E-02  2608   0.279E-01    0.362E-01
DAV:  41    -0.400239866942E+03   -0.96808E-03   -0.64486E-03  3008   0.190E-01    0.270E-01
DAV:  42    -0.400239203074E+03    0.66387E-03   -0.15045E-03  2504   0.111E-01    0.160E-01
DAV:  43    -0.400239218811E+03   -0.15738E-04   -0.33683E-04  2928   0.437E-02    0.112E-01
DAV:  44    -0.400239085821E+03    0.13299E-03   -0.66020E-04  3072   0.536E-02    0.516E-02
DAV:  45    -0.400239095904E+03   -0.10082E-04   -0.87084E-05  2408   0.267E-02    0.567E-02
DAV:  46    -0.400239079218E+03    0.16686E-04   -0.25731E-05  2128   0.151E-02    0.499E-02
DAV:  47    -0.400239068207E+03    0.11011E-04   -0.46427E-05  2592   0.133E-02    0.332E-02
DAV:  48    -0.400239061919E+03    0.62874E-05   -0.10898E-05  1640   0.928E-03    0.190E-02
DAV:  49    -0.400239060554E+03    0.13656E-05   -0.65433E-05  2816   0.182E-02    0.149E-02
DAV:  50    -0.400239059434E+03    0.11202E-05   -0.35320E-06  1192   0.557E-03
   1 F= -.40023906E+03 E0= -.40018453E+03  d E =-.109061E+00
 running on   16 total cores
 distrk:  each k-point on    8 cores,    2 groups
 distr:  one band on    4 cores,    2 groups
 using from now: INCAR     
 vasp.5.4.4.18Apr17-6-g9f103f2a35 (build Nov 27 2019 20:08:17) complex          
  
 POSCAR found type information on POSCAR  Ti
 POSCAR found :  1 types and      36 ions
 scaLAPACK will be used

 ----------------------------------------------------------------------------- 
|                                                                             |
|           W    W    AA    RRRRR   N    N  II  N    N   GGGG   !!!           |
|           W    W   A  A   R    R  NN   N  II  NN   N  G    G  !!!           |
|           W    W  A    A  R    R  N N  N  II  N N  N  G       !!!           |
|           W WW W  AAAAAA  RRRRR   N  N N  II  N  N N  G  GGG   !            |
|           WW  WW  A    A  R   R   N   NN  II  N   NN  G    G                |
|           W    W  A    A  R    R  N    N  II  N    N   GGGG   !!!           |
|                                                                             |
|      You have enabled k-point parallelism (KPAR>1).                         |
|      This developmental code was originally  written by Paul Kent at ORNL,  |
|      and carefully double checked in Vienna.                                |
|      GW as well as linear response parallelism added by Martijn Marsman     |
|      and Georg Kresse.                                                      |
|      Carefully verify results versus KPAR=1.                                |
|      Report problems to Paul Kent and Vienna.                               |
|                                                                             |
 ----------------------------------------------------------------------------- 

 LDA part: xc-table for Pade appr. of Perdew
 POSCAR found type information on POSCAR  Ti
 POSCAR found :  1 types and      36 ions
 POSCAR, INCAR and KPOINTS ok, starting setup
 FFT: planning ...
 WAVECAR not read
 WARNING: random wavefunctions but no delay for mixing, default for NELMDL
 entering main loop
       N       E                     dE             d eps       ncg     rms          rms(c)
DAV:   1     0.730760400456E+03    0.73076E+03   -0.40319E+04  1288   0.106E+03
DAV:   2    -0.187733111686E+03   -0.91849E+03   -0.88190E+03  1300   0.242E+02
DAV:   3    -0.320702247736E+03   -0.13297E+03   -0.12465E+03  1992   0.854E+01
DAV:   4    -0.330608195303E+03   -0.99059E+01   -0.92190E+01  1936   0.277E+01
DAV:   5    -0.331131589922E+03   -0.52339E+00   -0.51130E+00  2040   0.573E+00    0.781E+01
DAV:   6    -0.507906149827E+03   -0.17677E+03   -0.29778E+03  2432   0.100E+02    0.100E+02
DAV:   7    -0.289269869085E+03    0.21864E+03   -0.41019E+03  2268   0.180E+02    0.347E+01
DAV:   8    -0.284291633312E+03    0.49782E+01   -0.57624E+02  1880   0.794E+01    0.377E+01
DAV:   9    -0.269130348681E+03    0.15161E+02   -0.76074E+01  2048   0.280E+01    0.294E+01
DAV:  10    -0.267366839665E+03    0.17635E+01   -0.59320E+00  2088   0.624E+00    0.277E+01
DAV:  11    -0.265149439522E+03    0.22174E+01   -0.17972E+00  2104   0.388E+00    0.247E+01
DAV:  12    -0.262379505839E+03    0.27699E+01   -0.60480E+00  1944   0.748E+00    0.209E+01
DAV:  13    -0.256399748104E+03    0.59798E+01   -0.27132E+01  2112   0.149E+01    0.711E+00
DAV:  14    -0.256102718207E+03    0.29703E+00   -0.28166E+00  2112   0.412E+00    0.489E+00
DAV:  15    -0.256177385913E+03   -0.74668E-01   -0.50596E-01  2048   0.208E+00    0.512E+00
DAV:  16    -0.255936338995E+03    0.24105E+00   -0.21935E+00  2064   0.350E+00    0.324E+00
DAV:  17    -0.255810232264E+03    0.12611E+00   -0.84021E-01  2072   0.277E+00    0.172E+00
DAV:  18    -0.255778587153E+03    0.31645E-01   -0.20363E-01  1888   0.133E+00    0.610E-01
DAV:  19    -0.255792543794E+03   -0.13957E-01   -0.62729E-02  2048   0.628E-01    0.679E-01
DAV:  20    -0.255794094548E+03   -0.15508E-02   -0.82277E-02  2000   0.745E-01    0.511E-01
DAV:  21    -0.255792318543E+03    0.17760E-02   -0.16302E-02  2000   0.434E-01    0.226E-01
DAV:  22    -0.255795985887E+03   -0.36673E-02   -0.14255E-02  2032   0.306E-01    0.267E-01
DAV:  23    -0.255796238718E+03   -0.25283E-03   -0.56080E-03  1952   0.209E-01    0.396E-02
DAV:  24    -0.255796750476E+03   -0.51176E-03   -0.47400E-04  1872   0.622E-02    0.590E-02
DAV:  25    -0.255796888342E+03   -0.13787E-03   -0.30306E-04  2024   0.483E-02    0.293E-02
DAV:  26    -0.255797011115E+03   -0.12277E-03   -0.71997E-05  1800   0.283E-02    0.180E-02
DAV:  27    -0.255797101684E+03   -0.90568E-04   -0.38278E-05  1840   0.116E-02    0.149E-02
DAV:  28    -0.255797168816E+03   -0.67132E-04   -0.33214E-05  1616   0.170E-02    0.235E-03
DAV:  29    -0.255797230336E+03   -0.61520E-04   -0.65580E-06   960   0.877E-03    0.737E-03
DAV:  30    -0.255797273037E+03   -0.42701E-04   -0.64984E-06  1064   0.812E-03    0.403E-03
DAV:  31    -0.255797292706E+03   -0.19669E-04   -0.15737E-06   896   0.304E-03    0.234E-03
DAV:  32    -0.255797296718E+03   -0.40124E-05   -0.64701E-07   896   0.200E-03
   1 F= -.25579730E+03 E0= -.25572852E+03  d E =-.137555E+00
 running on   16 total cores
 distrk:  each k-point on    8 cores,    2 groups
 distr:  one band on    4 cores,    2 groups
 using from now: INCAR     
 vasp.5.4.4.18Apr17-6-g9f103f2a35 (build Nov 27 2019 20:08:17) complex          
  
 POSCAR found type information on POSCAR  Ti
 POSCAR found :  1 types and      90 ions
 scaLAPACK will be used

 ----------------------------------------------------------------------------- 
|                                                                             |
|           W    W    AA    RRRRR   N    N  II  N    N   GGGG   !!!           |
|           W    W   A  A   R    R  NN   N  II  NN   N  G    G  !!!           |
|           W    W  A    A  R    R  N N  N  II  N N  N  G       !!!           |
|           W WW W  AAAAAA  RRRRR   N  N N  II  N  N N  G  GGG   !            |
|           WW  WW  A    A  R   R   N   NN  II  N   NN  G    G                |
|           W    W  A    A  R    R  N    N  II  N    N   GGGG   !!!           |
|                                                                             |
|      You have enabled k-point parallelism (KPAR>1).                         |
|      This developmental code was originally  written by Paul Kent at ORNL,  |
|      and carefully double checked in Vienna.                                |
|      GW as well as linear response parallelism added by Martijn Marsman     |
|      and Georg Kresse.                                                      |
|      Carefully verify results versus KPAR=1.                                |
|      Report problems to Paul Kent and Vienna.                               |
|                                                                             |
 ----------------------------------------------------------------------------- 

 LDA part: xc-table for Pade appr. of Perdew
 POSCAR found type information on POSCAR  Ti
 POSCAR found :  1 types and      90 ions
 POSCAR, INCAR and KPOINTS ok, starting setup
 FFT: planning ...
 WAVECAR not read
 WARNING: random wavefunctions but no delay for mixing, default for NELMDL
 entering main loop
       N       E                     dE             d eps       ncg     rms          rms(c)
DAV:   1     0.148834960631E+04    0.14883E+04   -0.10289E+05  3164   0.123E+03
DAV:   2    -0.480535466163E+03   -0.19689E+04   -0.19153E+04  3164   0.273E+02
DAV:   3    -0.778787065308E+03   -0.29825E+03   -0.27956E+03  4792   0.941E+01
DAV:   4    -0.803642248447E+03   -0.24855E+02   -0.23785E+02  4744   0.282E+01
DAV:   5    -0.804643986337E+03   -0.10017E+01   -0.97462E+00  4640   0.435E+00    0.115E+02
DAV:   6    -0.141804160515E+04   -0.61340E+03   -0.62246E+03  6110   0.131E+02    0.891E+01
DAV:   7    -0.167866013011E+04   -0.26062E+03   -0.18229E+04  5812   0.151E+02    0.145E+02
DAV:   8    -0.632283234555E+03    0.10464E+04   -0.59014E+03  5696   0.170E+02    0.540E+01
DAV:   9    -0.715398437168E+03   -0.83115E+02   -0.20723E+03  5616   0.795E+01    0.528E+01
DAV:  10    -0.698588297594E+03    0.16810E+02   -0.59894E+02  5360   0.563E+01    0.360E+01
DAV:  11    -0.693141614690E+03    0.54467E+01   -0.82045E+01  5192   0.158E+01    0.292E+01
DAV:  12    -0.688234051397E+03    0.49076E+01   -0.54735E+01  5024   0.131E+01    0.227E+01
DAV:  13    -0.685173459491E+03    0.30606E+01   -0.26954E+01  5032   0.953E+00    0.162E+01
DAV:  14    -0.686788313258E+03   -0.16149E+01   -0.23994E+00  4888   0.264E+00    0.185E+01
DAV:  15    -0.686535199512E+03    0.25311E+00   -0.30638E-01  4856   0.105E+00    0.181E+01
DAV:  16    -0.684826744447E+03    0.17085E+01   -0.82729E-01  4472   0.216E+00    0.159E+01
DAV:  17    -0.682046605408E+03    0.27801E+01   -0.36109E+00  4720   0.441E+00    0.109E+01
DAV:  18    -0.680161855251E+03    0.18848E+01   -0.51035E+00  4768   0.503E+00    0.539E+00
DAV:  19    -0.680023601939E+03    0.13825E+00   -0.90640E-01  4880   0.186E+00    0.447E+00
DAV:  20    -0.680134074035E+03   -0.11047E+00   -0.52463E-01  4456   0.168E+00    0.462E+00
DAV:  21    -0.680034096189E+03    0.99978E-01   -0.34777E-01  4968   0.110E+00    0.406E+00
DAV:  22    -0.679778167513E+03    0.25593E+00   -0.81887E-01  5080   0.180E+00    0.179E+00
DAV:  23    -0.679756257826E+03    0.21910E-01   -0.19387E-01  4616   0.925E-01    0.118E+00
DAV:  24    -0.679747491166E+03    0.87667E-02   -0.34574E-02  4768   0.385E-01    0.967E-01
DAV:  25    -0.679739577891E+03    0.79133E-02   -0.19426E-02  4832   0.278E-01    0.761E-01
DAV:  26    -0.679732020773E+03    0.75571E-02   -0.20783E-02  4936   0.274E-01    0.507E-01
DAV:  27    -0.679727908014E+03    0.41128E-02   -0.14184E-02  4872   0.251E-01    0.222E-01
DAV:  28    -0.679727267995E+03    0.64002E-03   -0.48566E-03  4776   0.146E-01    0.144E-01
DAV:  29    -0.679727206846E+03    0.61149E-04   -0.10251E-03  4816   0.637E-02    0.122E-01
DAV:  30    -0.679727164428E+03    0.42418E-04   -0.52052E-04  4520   0.514E-02    0.684E-02
DAV:  31    -0.679727139842E+03    0.24586E-04   -0.28492E-04  4904   0.342E-02    0.452E-02
DAV:  32    -0.679727129621E+03    0.10221E-04   -0.15914E-04  4776   0.250E-02    0.296E-02
DAV:  33    -0.679727129826E+03   -0.20520E-06   -0.40022E-05  3880   0.145E-02
   1 F= -.67972713E+03 E0= -.67963230E+03  d E =-.189655E+00

DISTANCE=1.550
E_alpha= -400.239261  E_beta= -255.797070  E_total= -677.726600 
W_seq=-21.690269

DISTANCE=1.600
E_alpha= -400.238985  E_beta= -255.797468  E_total= -679.149372 
W_seq=-23.112919

DISTANCE=1.650
E_alpha= -400.239383  E_beta= -255.797676  E_total= -680.230479 
W_seq=-24.193420

DISTANCE=1.700
E_alpha= -400.239240  E_beta= -255.797863  E_total= -681.033556 
W_seq=-24.996453

DISTANCE=1.750
E_alpha= -400.239362  E_beta= -255.797422  E_total= -681.613684 
W_seq=-25.576900

DISTANCE=1.800
E_alpha= -400.239133  E_beta= -255.796983  E_total= -682.017691 
W_seq=-25.981575

DISTANCE=1.850
E_alpha= -400.239520  E_beta= -255.796935  E_total= -682.281596 
W_seq=-26.245141

DISTANCE=1.900
E_alpha= -400.239188  E_beta= -255.797158  E_total= -682.430846 
W_seq=-26.394500

DISTANCE=1.950
E_alpha= -400.239060  E_beta= -255.797327  E_total= -682.485073 
W_seq=-26.448686

DISTANCE=2.000
E_alpha= -400.239742  E_beta= -255.797249  E_total= -682.458713 
W_seq=-26.421722

DISTANCE=2.050
E_alpha= -400.240231  E_beta= -255.797132  E_total= -682.361987 
W_seq=-26.324624

DISTANCE=2.100
E_alpha= -400.239347  E_beta= -255.797230  E_total= -682.202331 
W_seq=-26.165754

DISTANCE=2.150
E_alpha= -400.239011  E_beta= -255.797410  E_total= -681.987469 
W_seq=-25.951048

DISTANCE=2.200
E_alpha= -400.239335  E_beta= -255.797594  E_total= -681.721951 
W_seq=-25.685022

DISTANCE=2.250
E_alpha= -400.239201  E_beta= -255.797836  E_total= -681.408026 
W_seq=-25.370989

DISTANCE=2.300
E_alpha= -400.239391  E_beta= -255.797604  E_total= -681.048377 
W_seq=-25.011382

DISTANCE=2.350
E_alpha= -400.239226  E_beta= -255.797193  E_total= -680.646029 
W_seq=-24.609610

DISTANCE=2.400
E_alpha= -400.239293  E_beta= -255.797176  E_total= -680.204748 
W_seq=-24.168279

DISTANCE=2.450
E_alpha= -400.239059  E_beta= -255.797297  E_total= -679.727130 
W_seq=-23.690774

